/*--------------------------------*- C++ -*----------------------------------*\
  =========                 |
  \\      /  F ield         | OpenFOAM: The Open Source CFD Toolbox
   \\    /   O peration     | Website:  https://openfoam.org
    \\  /    A nd           | Version:  8
     \\/     M anipulation  |
\*---------------------------------------------------------------------------*/
FoamFile
{
    version     2.0;
    format      ascii;
    class       volScalarField;
    location    "0.3";
    object      p;
}
// * * * * * * * * * * * * * * * * * * * * * * * * * * * * * * * * * * * * * //

dimensions      [0 2 -2 0 0 0 0];

internalField   nonuniform List<scalar> 
400
(
3.75947e-06
-0.00582251
-0.0129591
-0.0184103
-0.0204271
-0.0182331
-0.0117689
-0.00147943
0.0118405
0.0271509
0.0432448
0.0588221
0.0725767
0.0833058
0.09005
0.0922645
0.0900243
0.0842436
0.0768817
0.071069
0.00578141
-0.000216709
-0.00580162
-0.00953954
-0.0105955
-0.00842902
-0.00296636
0.00547727
0.0163053
0.0287133
0.0417505
0.0543859
0.0655858
0.0744089
0.0801192
0.0823151
0.0810772
0.0770557
0.071276
0.0653205
0.0133343
0.00503406
-0.00099401
-0.00442119
-0.00527058
-0.00326136
0.00160494
0.00902998
0.0185041
0.0293508
0.0407664
0.0518701
0.0617687
0.0696364
0.0748071
0.0768785
0.0758426
0.0720877
0.0658083
0.0575394
0.0201373
0.00869543
0.00122642
-0.0026673
-0.00372044
-0.00188337
0.00273334
0.00978661
0.0187822
0.0290966
0.0399932
0.0506549
0.0602337
0.0679167
0.0730041
0.0750027
0.0737676
0.0694586
0.0616066
0.0501076
0.0244991
0.00977206
0.000589898
-0.00398607
-0.00530089
-0.00350567
0.00117659
0.00833651
0.0174639
0.0279509
0.0390866
0.0500714
0.0600502
0.0681664
0.0736279
0.0757996
0.0743714
0.0692929
0.0595299
0.0445431
0.0251749
0.00714893
-0.00380195
-0.00905639
-0.0105108
-0.00849824
-0.00335481
0.00443159
0.0143156
0.0256813
0.037816
0.0499054
0.06105
0.070305
0.0767367
0.0795193
0.0781419
0.0723372
0.0605441
0.0418965
0.0210911
-0.000263033
-0.0129341
-0.0187082
-0.0200281
-0.0174118
-0.0113159
-0.002317
0.00899327
0.0219791
0.0359126
0.0499472
0.0631148
0.0743479
0.0825245
0.0865724
0.0857241
0.0794511
0.0656254
0.0430783
0.0111417
-0.013618
-0.0278739
-0.0338525
-0.0346012
-0.0308547
-0.0232097
-0.0123417
0.00110849
0.0164876
0.0330563
0.0499373
0.0660869
0.0802932
0.091204
0.0974334
0.097874
0.0916403
0.0759014
0.0491229
-0.00596646
-0.034265
-0.0498679
-0.055546
-0.0550871
-0.049511
-0.0395895
-0.026109
-0.00975254
0.00882768
0.0289057
0.0495981
0.0698019
0.0881587
0.103051
0.112705
0.115554
0.110196
0.0928391
0.0614172
-0.0318542
-0.0638731
-0.0804136
-0.0850036
-0.0824162
-0.074074
-0.0609761
-0.0440314
-0.023946
-0.00133127
0.0231512
0.0486665
0.0741008
0.0979771
0.1184
0.13313
0.139993
0.136822
0.118445
0.0819387
-0.0686621
-0.104599
-0.12134
-0.123585
-0.117511
-0.105121
-0.0877127
-0.0663196
-0.0416307
-0.0141492
0.015612
0.0469595
0.0788617
0.109799
0.137629
0.15959
0.172731
0.173782
0.155524
0.113575
-0.119395
-0.159351
-0.174909
-0.172752
-0.161142
-0.142923
-0.119753
-0.0927705
-0.0625706
-0.0294406
0.0063802
0.0444804
0.0840617
0.123709
0.161142
0.193091
0.215672
0.224081
0.208054
0.160635
-0.188619
-0.232234
-0.243932
-0.233942
-0.213688
-0.187148
-0.156366
-0.122494
-0.0858906
-0.0464647
-0.00400696
0.0415461
0.089849
0.139836
0.189325
0.234694
0.271079
0.291668
0.281745
0.229777
-0.283964
-0.329296
-0.331825
-0.308274
-0.274703
-0.236434
-0.195758
-0.153603
-0.109833
-0.0637374
-0.0144301
0.0388709
0.0965613
0.158283
0.22238
0.285293
0.341401
0.381578
0.384916
0.331835
-0.419308
-0.459663
-0.442343
-0.395786
-0.342123
-0.287734
-0.23461
-0.182923
-0.131602
-0.0789772
-0.0232061
0.0374829
0.10456
0.178844
0.259867
0.344975
0.42862
0.499703
0.529677
0.485392
-0.620522
-0.636736
-0.578671
-0.494188
-0.411235
-0.335653
-0.267775
-0.205971
-0.14753
-0.0893754
-0.0284182
0.038356
0.113814
0.200478
0.299981
0.41203
0.533033
0.651778
0.732773
0.722396
-0.935915
-0.878508
-0.741736
-0.597944
-0.474389
-0.372655
-0.288864
-0.217757
-0.153947
-0.0924568
-0.0287097
0.0417033
0.123271
0.220724
0.338931
0.482159
0.652
0.841345
1.01527
1.0975
-1.47642
-1.20663
-0.920499
-0.691385
-0.517302
-0.387541
-0.290058
-0.213333
-0.148118
-0.087209
-0.0245705
0.0454649
0.128945
0.233077
0.367109
0.542683
0.771297
1.05932
1.40329
1.73014
-2.53964
-1.63054
-1.04444
-0.710957
-0.49575
-0.352092
-0.254529
-0.18358
-0.126165
-0.0735893
-0.0192622
0.0427943
0.11922
0.21879
0.354819
0.547989
0.826397
1.23658
1.91168
2.92419
-4.36666
-2.04463
-0.973541
-0.563181
-0.357847
-0.240147
-0.170119
-0.123781
-0.0874778
-0.0535051
-0.0166477
0.0276685
0.084616
0.161738
0.272419
0.442106
0.718225
1.22571
2.41104
4.84853
)
;

boundaryField
{
    movingWall
    {
        type            zeroGradient;
    }
    fixedWalls
    {
        type            zeroGradient;
    }
    frontAndBack
    {
        type            empty;
    }
}


// ************************************************************************* //
