/*--------------------------------*- C++ -*----------------------------------*\
  =========                 |
  \\      /  F ield         | OpenFOAM: The Open Source CFD Toolbox
   \\    /   O peration     | Website:  https://openfoam.org
    \\  /    A nd           | Version:  8
     \\/     M anipulation  |
\*---------------------------------------------------------------------------*/
FoamFile
{
    version     2.0;
    format      ascii;
    class       surfaceScalarField;
    location    "0.3";
    object      phi;
}
// * * * * * * * * * * * * * * * * * * * * * * * * * * * * * * * * * * * * * //

dimensions      [0 3 -1 0 0 0 0];

internalField   nonuniform List<scalar> 
760
(
1.42317e-08
-1.42633e-08
-2.2209e-08
3.64412e-08
-1.14261e-07
9.2052e-08
-2.45474e-07
1.31213e-07
-3.96066e-07
1.50592e-07
-5.4732e-07
1.51255e-07
-6.83132e-07
1.35812e-07
-7.90593e-07
1.07462e-07
-8.60131e-07
6.95375e-08
-8.85563e-07
2.54314e-08
-8.64243e-07
-2.13193e-08
-7.97319e-07
-6.69248e-08
-6.90026e-07
-1.07294e-07
-5.51927e-07
-1.381e-07
-3.96912e-07
-1.55016e-07
-2.42732e-07
-1.54181e-07
-1.09727e-07
-1.33005e-07
-1.84166e-08
-9.13104e-08
1.56875e-08
-3.41044e-08
1.56872e-08
-3.42126e-08
1.99485e-08
-1.8036e-07
1.82589e-07
-4.33956e-07
3.45647e-07
-7.64376e-07
4.61633e-07
-1.13213e-06
5.18341e-07
-1.49713e-06
5.16258e-07
-1.8232e-06
4.6188e-07
-2.08038e-06
3.6464e-07
-2.2461e-06
2.35264e-07
-2.30586e-06
8.51919e-08
-2.25373e-06
-7.34537e-08
-2.09289e-06
-2.27762e-07
-1.83612e-06
-3.6406e-07
-1.50593e-06
-4.68293e-07
-1.134e-06
-5.26947e-07
-7.59468e-07
-5.28713e-07
-4.25372e-07
-4.67102e-07
-1.72682e-07
-3.44001e-07
-3.08007e-08
-1.75985e-07
-1.51134e-08
-9.22213e-08
1.12169e-07
-3.56969e-07
4.47337e-07
-7.645e-07
7.53178e-07
-1.26839e-06
9.65522e-07
-1.81456e-06
1.06451e-06
-2.34886e-06
1.05056e-06
-2.82221e-06
9.35231e-07
-3.19369e-06
7.36119e-07
-3.43234e-06
4.73912e-07
-3.51824e-06
1.71089e-07
-3.44331e-06
-1.48386e-07
-3.21201e-06
-4.59058e-07
-2.84189e-06
-7.34181e-07
-2.36363e-06
-9.46557e-07
-1.82018e-06
-1.07039e-06
-1.2644e-06
-1.0845e-06
-7.54469e-07
-9.77029e-07
-3.46947e-07
-7.51523e-07
-8.73304e-08
-4.35601e-07
-1.02443e-07
-1.452e-07
2.57368e-07
-5.25421e-07
8.27558e-07
-1.08155e-06
1.30931e-06
-1.74737e-06
1.63135e-06
-2.45414e-06
1.77127e-06
-3.13613e-06
1.73255e-06
-3.735e-06
1.5341e-06
-4.20258e-06
1.2037e-06
-4.50257e-06
7.73903e-07
-4.61157e-06
2.80092e-07
-4.51992e-06
-2.40046e-07
-4.23242e-06
-7.46557e-07
-3.76909e-06
-1.19751e-06
-3.16541e-06
-1.55024e-06
-2.4717e-06
-1.7641e-06
-1.75094e-06
-1.80525e-06
-1.07443e-06
-1.65354e-06
-5.15103e-07
-1.31085e-06
-1.39306e-07
-8.11398e-07
-2.41748e-07
-1.93595e-07
4.50962e-07
-6.84951e-07
1.31891e-06
-1.38552e-06
2.00988e-06
-2.20708e-06
2.45291e-06
-3.06524e-06
2.62944e-06
-3.8835e-06
2.5508e-06
-4.59617e-06
2.24677e-06
-5.15021e-06
1.75774e-06
-5.50605e-06
1.12974e-06
-5.63812e-06
4.12162e-07
-5.53536e-06
-3.42803e-07
-5.20201e-06
-1.07991e-06
-4.65856e-06
-1.74096e-06
-3.94269e-06
-2.26611e-06
-3.1095e-06
-2.59729e-06
-2.23035e-06
-2.6844e-06
-1.38955e-06
-2.49434e-06
-6.78454e-07
-2.02195e-06
-1.87755e-07
-1.3021e-06
-4.29503e-07
-2.39925e-07
6.90887e-07
-8.40297e-07
1.91928e-06
-1.68318e-06
2.85276e-06
-2.65689e-06
3.42662e-06
-3.66061e-06
3.63315e-06
-4.60748e-06
3.49768e-06
-5.42602e-06
3.06531e-06
-6.0602e-06
2.39192e-06
-6.46896e-06
1.53851e-06
-6.62565e-06
5.68853e-07
-6.51793e-06
-4.50523e-07
-6.14844e-06
-1.4494e-06
-5.53622e-06
-2.35318e-06
-4.71866e-06
-3.08368e-06
-3.75325e-06
-3.5627e-06
-2.71833e-06
-3.71932e-06
-1.71144e-06
-3.50123e-06
-8.44615e-07
-2.88878e-06
-2.36166e-07
-1.91055e-06
-6.65669e-07
-2.86731e-07
9.77617e-07
-9.97038e-07
2.62959e-06
-1.98199e-06
3.83771e-06
-3.1048e-06
4.54943e-06
-4.24775e-06
4.77611e-06
-5.31457e-06
4.56449e-06
-6.22982e-06
3.98056e-06
-6.93684e-06
3.09894e-06
-7.39514e-06
1.9968e-06
-7.57827e-06
7.51983e-07
-7.47282e-06
-5.55974e-07
-7.07879e-06
-1.84343e-06
-6.4116e-06
-3.02037e-06
-5.50535e-06
-3.98993e-06
-4.41688e-06
-4.65117e-06
-3.22924e-06
-4.90696e-06
-2.05287e-06
-4.67759e-06
-1.0225e-06
-3.91915e-06
-2.88269e-07
-2.64477e-06
-9.53938e-07
-3.3632e-07
1.31394e-06
-1.16033e-06
3.4536e-06
-2.28794e-06
4.96532e-06
-3.55488e-06
5.81636e-06
-4.82646e-06
6.04769e-06
-5.99887e-06
5.73689e-06
-6.9958e-06
4.97749e-06
-7.76326e-06
3.86641e-06
-8.26421e-06
2.49775e-06
-8.47434e-06
9.62108e-07
-8.37969e-06
-6.50618e-07
-7.97664e-06
-2.24647e-06
-7.27435e-06
-3.72266e-06
-6.29977e-06
-4.96452e-06
-5.10453e-06
-5.84641e-06
-3.77243e-06
-6.23906e-06
-2.42482e-06
-6.0252e-06
-1.22071e-06
-5.12326e-06
-3.47698e-07
-3.51779e-06
-1.30164e-06
-3.90951e-07
1.70489e-06
-1.33486e-06
4.39752e-06
-2.60493e-06
6.23539e-06
-4.00588e-06
7.21731e-06
-5.38672e-06
7.42854e-06
-6.63963e-06
6.98981e-06
-7.69229e-06
6.03016e-06
-8.4983e-06
4.67242e-06
-9.02824e-06
3.02769e-06
-9.26274e-06
1.19661e-06
-9.18848e-06
-7.24886e-07
-8.79732e-06
-2.63763e-06
-8.08922e-06
-4.43076e-06
-7.0789e-06
-5.97484e-06
-5.80623e-06
-7.11908e-06
-4.34898e-06
-7.69631e-06
-2.83477e-06
-7.53941e-06
-1.44707e-06
-6.51095e-06
-4.18092e-07
-4.54677e-06
-1.71973e-06
-4.53452e-07
2.15834e-06
-1.52568e-06
5.46974e-06
-2.93487e-06
7.64459e-06
-4.4501e-06
8.73253e-06
-5.9063e-06
8.88474e-06
-7.19779e-06
8.28129e-06
-8.26363e-06
7.096e-06
-9.07203e-06
5.48082e-06
-9.60683e-06
3.56249e-06
-9.85756e-06
1.44733e-06
-9.81338e-06
-7.69057e-07
-9.46134e-06
-2.98967e-06
-8.78907e-06
-5.10303e-06
-7.79297e-06
-6.97094e-06
-6.49218e-06
-8.41987e-06
-4.94795e-06
-9.24054e-06
-3.2851e-06
-9.20226e-06
-1.70867e-06
-8.08738e-06
-5.03585e-07
-5.75185e-06
-2.22331e-06
-5.28338e-07
2.68668e-06
-1.73967e-06
6.68108e-06
-3.27799e-06
9.18291e-06
-4.87166e-06
1.03262e-05
-6.34705e-06
1.03601e-05
-7.61087e-06
9.54511e-06
-8.62441e-06
8.10954e-06
-9.37974e-06
6.23616e-06
-9.88105e-06
4.0638e-06
-1.01316e-05
1.69787e-06
-1.01258e-05
-7.7481e-07
-9.84638e-06
-3.26912e-06
-9.26603e-06
-5.68338e-06
-8.35636e-06
-7.88061e-06
-7.10471e-06
-9.67151e-06
-5.54071e-06
-1.08045e-05
-3.77071e-06
-1.09723e-05
-2.01217e-06
-9.84592e-06
-6.09689e-07
-7.15433e-06
-2.833e-06
-6.23673e-07
3.31035e-06
-1.98741e-06
8.04481e-06
-3.63196e-06
1.08275e-05
-5.242e-06
1.19362e-05
-6.64767e-06
1.17658e-05
-7.7846e-06
1.0682e-05
-8.65116e-06
8.9761e-06
-9.27447e-06
6.85947e-06
-9.68671e-06
4.47604e-06
-9.90999e-06
1.92116e-06
-9.9474e-06
-7.37399e-07
-9.77874e-06
-3.43779e-06
-9.36102e-06
-6.1011e-06
-8.63572e-06
-8.6059e-06
-7.54646e-06
-1.07608e-05
-6.07164e-06
-1.22794e-05
-4.2743e-06
-1.27696e-05
-2.36366e-06
-1.17566e-05
-7.44781e-07
-8.77321e-06
-3.57778e-06
-7.54087e-07
4.06444e-06
-2.28439e-06
9.57511e-06
-3.98708e-06
1.25302e-05
-5.50921e-06
1.34584e-05
-6.70977e-06
1.29664e-05
-7.57876e-06
1.1551e-05
-8.17029e-06
9.56763e-06
-8.55789e-06
7.24707e-06
-8.80801e-06
4.72616e-06
-8.96533e-06
2.07848e-06
-9.04464e-06
-6.5809e-07
-9.026e-06
-3.45642e-06
-8.85282e-06
-6.27428e-06
-8.43501e-06
-9.02371e-06
-7.66305e-06
-1.15327e-05
-6.4421e-06
-1.35003e-05
-4.75631e-06
-1.44554e-05
-2.76678e-06
-1.37461e-05
-9.22442e-07
-1.06175e-05
-4.50022e-06
-9.4522e-07
5.00966e-06
-2.64854e-06
1.12784e-05
-4.31108e-06
1.41927e-05
-5.57343e-06
1.47207e-05
-6.37087e-06
1.37638e-05
-6.78351e-06
1.19637e-05
-6.94076e-06
9.72488e-06
-6.97002e-06
7.27632e-06
-6.97308e-06
4.72922e-06
-7.0168e-06
2.12221e-06
-7.12889e-06
-5.45999e-07
-7.29402e-06
-3.29129e-06
-7.44887e-06
-6.11943e-06
-7.47808e-06
-8.9945e-06
-7.21809e-06
-1.17927e-05
-6.48286e-06
-1.42356e-05
-5.1335e-06
-1.58047e-05
-3.21501e-06
-1.56646e-05
-1.16439e-06
-1.26682e-05
-5.66462e-06
-1.23733e-06
6.24699e-06
-3.08334e-06
1.31244e-05
-4.5078e-06
1.56172e-05
-5.23462e-06
1.54475e-05
-5.3554e-06
1.38846e-05
-5.08207e-06
1.16903e-05
-4.63117e-06
9.27398e-06
-4.17956e-06
6.82471e-06
-3.85467e-06
4.40433e-06
-3.73734e-06
2.00487e-06
-3.86544e-06
-4.17902e-07
-4.23293e-06
-2.9238e-06
-4.78234e-06
-5.57002e-06
-5.39128e-06
-8.38556e-06
-5.85866e-06
-1.13253e-05
-5.90669e-06
-1.41875e-05
-5.23289e-06
-1.64785e-05
-3.66631e-06
-1.72312e-05
-1.50009e-06
-1.48344e-05
-7.16471e-06
-1.67382e-06
7.92081e-06
-3.51341e-06
1.4964e-05
-4.31538e-06
1.64191e-05
-4.089e-06
1.52212e-05
-3.19323e-06
1.29888e-05
-1.99897e-06
1.04961e-05
-7.95413e-07
8.07043e-06
2.19034e-07
5.81027e-06
9.17909e-07
3.70545e-06
1.22528e-06
1.69751e-06
1.10174e-06
-2.94368e-07
5.40762e-07
-2.36282e-06
-4.23195e-07
-4.60607e-06
-1.69279e-06
-7.11596e-06
-3.07259e-06
-9.94555e-06
-4.23095e-06
-1.30292e-05
-4.69573e-06
-1.60138e-05
-3.96722e-06
-1.79597e-05
-1.94493e-06
-1.68567e-05
-9.10964e-06
-2.2307e-06
1.01515e-05
-3.59033e-06
1.63237e-05
-3.07785e-06
1.59067e-05
-1.34399e-06
1.34873e-05
8.96876e-07
1.07479e-05
3.15476e-06
8.23818e-06
5.13787e-06
6.08732e-06
6.68841e-06
4.25972e-06
7.72553e-06
2.66833e-06
8.20624e-06
1.2168e-06
8.10358e-06
-1.91709e-07
7.39875e-06
-1.65798e-06
6.08661e-06
-3.29392e-06
4.19897e-06
-5.22833e-06
1.85398e-06
-7.60056e-06
-6.61836e-07
-1.05133e-05
-2.79225e-06
-1.38833e-05
-3.66213e-06
-1.70898e-05
-2.41155e-06
-1.81072e-05
-1.15212e-05
-2.57382e-06
1.27253e-05
-2.18348e-06
1.59333e-05
7.18023e-07
1.30052e-05
4.46948e-06
9.73585e-06
8.13316e-06
7.08427e-06
1.13014e-05
5.06994e-06
1.38289e-05
3.55984e-06
1.56879e-05
2.40075e-06
1.68914e-05
1.46478e-06
1.74546e-05
6.53595e-07
1.73761e-05
-1.13195e-07
1.66303e-05
-9.12135e-07
1.5167e-05
-1.83063e-06
1.29233e-05
-2.9847e-06
9.86161e-06
-4.53884e-06
6.06186e-06
-6.71359e-06
1.91228e-06
-9.73376e-06
-1.55966e-06
-1.36179e-05
-2.45835e-06
-1.72086e-05
-1.39795e-05
-7.85014e-07
1.35103e-05
4.08079e-06
1.10675e-05
1.02975e-05
6.78842e-06
1.57936e-05
4.23978e-06
2.0158e-05
2.7199e-06
2.3458e-05
1.76993e-06
2.58607e-05
1.15713e-06
2.75214e-05
7.40044e-07
2.85539e-05
4.32287e-07
2.90263e-05
1.81219e-07
2.8962e-05
-4.89794e-08
2.83386e-05
-2.88693e-07
2.70817e-05
-5.73732e-07
2.50549e-05
-9.57946e-07
2.20516e-05
-1.53551e-06
1.78154e-05
-2.47741e-06
1.21723e-05
-4.09067e-06
5.4777e-06
-6.92323e-06
-1.29174e-07
-1.16017e-05
-1.41087e-05
1.35103e-05
2.45779e-05
3.13663e-05
3.56061e-05
3.8326e-05
4.00959e-05
4.1253e-05
4.19931e-05
4.24253e-05
4.26066e-05
4.25576e-05
4.22689e-05
4.16952e-05
4.07372e-05
3.92017e-05
3.67243e-05
3.26336e-05
2.57104e-05
1.41087e-05
)
;

boundaryField
{
    movingWall
    {
        type            calculated;
        value           uniform 0;
    }
    fixedWalls
    {
        type            calculated;
        value           uniform 0;
    }
    frontAndBack
    {
        type            empty;
        value           nonuniform List<scalar> 0();
    }
}


// ************************************************************************* //
