/*--------------------------------*- C++ -*----------------------------------*\
  =========                 |
  \\      /  F ield         | OpenFOAM: The Open Source CFD Toolbox
   \\    /   O peration     | Website:  https://openfoam.org
    \\  /    A nd           | Version:  8
     \\/     M anipulation  |
\*---------------------------------------------------------------------------*/
FoamFile
{
    version     2.0;
    format      ascii;
    class       volScalarField;
    location    "0.4";
    object      p;
}
// * * * * * * * * * * * * * * * * * * * * * * * * * * * * * * * * * * * * * //

dimensions      [0 2 -2 0 0 0 0];

internalField   nonuniform List<scalar> 
400
(
4.28006e-06
-0.00582239
-0.0129598
-0.0184118
-0.0204292
-0.0182355
-0.0117711
-0.00148116
0.0118396
0.027151
0.0432459
0.0588242
0.0725795
0.0833091
0.0900534
0.0922677
0.0900269
0.0842453
0.0768824
0.0710691
0.00578304
-0.000215827
-0.00580147
-0.00953997
-0.0105963
-0.00843012
-0.00296748
0.00547638
0.0163049
0.0287134
0.0417513
0.0543873
0.0655877
0.0744111
0.0801214
0.082317
0.0810787
0.0770565
0.0712761
0.0653201
0.0133369
0.00503568
-0.000993169
-0.00442089
-0.00527066
-0.00326167
0.00160453
0.00902962
0.0185039
0.029351
0.040767
0.0518711
0.06177
0.0696378
0.0748085
0.0768796
0.0758433
0.0720878
0.0658077
0.057538
0.0201408
0.00869766
0.00122777
-0.00266653
-0.00372007
-0.00188326
0.0027333
0.00978652
0.0187822
0.0290967
0.0399936
0.0506556
0.0602345
0.0679176
0.0730049
0.0750033
0.0737677
0.0694582
0.0616054
0.0501053
0.0245031
0.00977466
0.000591567
-0.00398501
-0.00530028
-0.00350536
0.00117671
0.0083365
0.0174639
0.0279509
0.0390867
0.0500716
0.0600506
0.0681668
0.0736282
0.0757997
0.074371
0.069292
0.0595281
0.0445401
0.0251789
0.00715155
-0.00380023
-0.00905527
-0.0105101
-0.00849795
-0.00335477
0.00443148
0.0143154
0.025681
0.0378157
0.0499052
0.0610499
0.070305
0.0767366
0.079519
0.0781411
0.0723359
0.060542
0.0418932
0.0210946
-0.000260753
-0.0129326
-0.0187073
-0.0200277
-0.0174117
-0.0113161
-0.00231743
0.00899271
0.0219784
0.0359118
0.0499465
0.0631142
0.0743473
0.082524
0.0865717
0.0857231
0.0794496
0.0656232
0.0430749
0.0111443
-0.0136164
-0.027873
-0.033852
-0.0346011
-0.030855
-0.0232104
-0.0123426
0.00110742
0.0164865
0.0330551
0.0499361
0.0660857
0.0802922
0.091203
0.0974324
0.0978728
0.0916387
0.0758992
0.0491197
-0.0059652
-0.0342643
-0.0498677
-0.0555461
-0.0550875
-0.0495118
-0.0395907
-0.0261105
-0.00975421
0.00882592
0.0289039
0.0495963
0.0698002
0.0881572
0.10305
0.112704
0.115553
0.110195
0.0928372
0.0614145
-0.0318546
-0.0638735
-0.0804143
-0.0850044
-0.0824172
-0.0740753
-0.0609778
-0.0440334
-0.0239483
-0.00133365
0.0231489
0.0486642
0.0740987
0.0979752
0.118399
0.133128
0.139991
0.136821
0.118444
0.0819368
-0.0686641
-0.1046
-0.121341
-0.123587
-0.117512
-0.105123
-0.0877148
-0.066322
-0.0416335
-0.0141521
0.0156091
0.0469567
0.0788592
0.109797
0.137627
0.159589
0.17273
0.173781
0.155523
0.113574
-0.119398
-0.159353
-0.174911
-0.172754
-0.161144
-0.142925
-0.119755
-0.0927732
-0.0625736
-0.0294438
0.00637694
0.0444773
0.0840588
0.123707
0.16114
0.193089
0.215671
0.22408
0.208053
0.160635
-0.188624
-0.232238
-0.243935
-0.233944
-0.213691
-0.187151
-0.156369
-0.122497
-0.0858937
-0.046468
-0.00401032
0.0415429
0.0898461
0.139833
0.189323
0.234693
0.271078
0.291667
0.281745
0.229778
-0.283969
-0.3293
-0.331827
-0.308276
-0.274705
-0.236436
-0.19576
-0.153606
-0.109836
-0.0637406
-0.0144333
0.0388678
0.0965585
0.158281
0.222378
0.285292
0.341401
0.381578
0.384917
0.331836
-0.419313
-0.459666
-0.442346
-0.395788
-0.342125
-0.287735
-0.234612
-0.182925
-0.131605
-0.07898
-0.023209
0.0374802
0.104558
0.178842
0.259865
0.344974
0.42862
0.499703
0.529678
0.485394
-0.620526
-0.636739
-0.578672
-0.494189
-0.411236
-0.335654
-0.267776
-0.205973
-0.147532
-0.0893778
-0.0284208
0.0383536
0.113812
0.200476
0.299979
0.412029
0.533033
0.651779
0.732775
0.722398
-0.935918
-0.87851
-0.741737
-0.597944
-0.474389
-0.372655
-0.288864
-0.217758
-0.153948
-0.0924587
-0.0287119
0.0417011
0.123269
0.220723
0.338931
0.482159
0.652001
0.841346
1.01527
1.09751
-1.47642
-1.20663
-0.920499
-0.691384
-0.517301
-0.38754
-0.290057
-0.213333
-0.148119
-0.0872103
-0.0245723
0.0454629
0.128943
0.233076
0.367108
0.542683
0.771297
1.05932
1.40329
1.73014
-2.53964
-1.63054
-1.04443
-0.710955
-0.495747
-0.35209
-0.254527
-0.183579
-0.126165
-0.0735901
-0.0192638
0.0427923
0.119218
0.218788
0.354817
0.547989
0.826397
1.23658
1.91168
2.9242
-4.36666
-2.04463
-0.973538
-0.563177
-0.357843
-0.240144
-0.170116
-0.123779
-0.087477
-0.0535054
-0.0166492
0.0276662
0.0846132
0.161735
0.272417
0.442104
0.718224
1.22571
2.41104
4.84854
)
;

boundaryField
{
    movingWall
    {
        type            zeroGradient;
    }
    fixedWalls
    {
        type            zeroGradient;
    }
    frontAndBack
    {
        type            empty;
    }
}


// ************************************************************************* //
