/*--------------------------------*- C++ -*----------------------------------*\
  =========                 |
  \\      /  F ield         | OpenFOAM: The Open Source CFD Toolbox
   \\    /   O peration     | Website:  https://openfoam.org
    \\  /    A nd           | Version:  8
     \\/     M anipulation  |
\*---------------------------------------------------------------------------*/
FoamFile
{
    version     2.0;
    format      ascii;
    class       surfaceScalarField;
    location    "0.4";
    object      phi;
}
// * * * * * * * * * * * * * * * * * * * * * * * * * * * * * * * * * * * * * //

dimensions      [0 3 -1 0 0 0 0];

internalField   nonuniform List<scalar> 
760
(
1.4232e-08
-1.42679e-08
-2.22112e-08
3.64431e-08
-1.14272e-07
9.20607e-08
-2.45499e-07
1.31227e-07
-3.96106e-07
1.50607e-07
-5.47376e-07
1.5127e-07
-6.83202e-07
1.35826e-07
-7.90676e-07
1.07473e-07
-8.6022e-07
6.95447e-08
-8.85654e-07
2.54338e-08
-8.64331e-07
-2.13221e-08
-7.97399e-07
-6.69326e-08
-6.90094e-07
-1.07305e-07
-5.5198e-07
-1.38114e-07
-3.96949e-07
-1.55031e-07
-2.42753e-07
-1.54196e-07
-1.09735e-07
-1.33017e-07
-1.84166e-08
-9.1318e-08
1.56897e-08
-3.41062e-08
1.56897e-08
-3.42164e-08
1.99485e-08
-1.80379e-07
1.82606e-07
-4.34002e-07
3.45683e-07
-7.64456e-07
4.61681e-07
-1.13225e-06
5.18396e-07
-1.49729e-06
5.16313e-07
-1.82339e-06
4.61929e-07
-2.0806e-06
3.64678e-07
-2.24634e-06
2.35287e-07
-2.3061e-06
8.5199e-08
-2.25396e-06
-7.34642e-08
-2.0931e-06
-2.2779e-07
-1.83631e-06
-3.64101e-07
-1.50608e-06
-4.68344e-07
-1.13411e-06
-5.27002e-07
-7.59539e-07
-5.28766e-07
-4.2541e-07
-4.67147e-07
-1.72696e-07
-3.44032e-07
-3.08029e-08
-1.75999e-07
-1.51131e-08
-9.22308e-08
1.12179e-07
-3.57007e-07
4.47382e-07
-7.6458e-07
7.53255e-07
-1.26852e-06
9.65623e-07
-1.81475e-06
1.06462e-06
-2.34911e-06
1.05067e-06
-2.82251e-06
9.35329e-07
-3.19402e-06
7.36195e-07
-3.43269e-06
4.73959e-07
-3.5186e-06
1.71103e-07
-3.44366e-06
-1.48407e-07
-3.21233e-06
-4.59113e-07
-2.84217e-06
-7.34263e-07
-2.36386e-06
-9.46659e-07
-1.82035e-06
-1.0705e-06
-1.26451e-06
-1.08461e-06
-7.54538e-07
-9.77123e-07
-3.46978e-07
-7.51592e-07
-8.7338e-08
-4.35639e-07
-1.02451e-07
-1.45214e-07
2.57394e-07
-5.25473e-07
8.27641e-07
-1.08166e-06
1.30944e-06
-1.74755e-06
1.63151e-06
-2.45438e-06
1.77146e-06
-3.13644e-06
1.73273e-06
-3.73536e-06
1.53426e-06
-4.20299e-06
1.20382e-06
-4.50301e-06
7.73975e-07
-4.61201e-06
2.80112e-07
-4.52034e-06
-2.40081e-07
-4.23281e-06
-7.46643e-07
-3.76943e-06
-1.19764e-06
-3.16569e-06
-1.5504e-06
-2.47192e-06
-1.76428e-06
-1.7511e-06
-1.80543e-06
-1.07453e-06
-1.65369e-06
-5.15147e-07
-1.31097e-06
-1.39318e-07
-8.11468e-07
-2.41768e-07
-1.93613e-07
4.51007e-07
-6.85012e-07
1.31904e-06
-1.38564e-06
2.01007e-06
-2.20728e-06
2.45315e-06
-3.06551e-06
2.62969e-06
-3.88383e-06
2.55105e-06
-4.59657e-06
2.24699e-06
-5.15066e-06
1.75791e-06
-5.50652e-06
1.12984e-06
-5.6386e-06
4.12188e-07
-5.53583e-06
-3.42853e-07
-5.20244e-06
-1.08003e-06
-4.65894e-06
-1.74114e-06
-3.943e-06
-2.26634e-06
-3.10974e-06
-2.59754e-06
-2.23052e-06
-2.68464e-06
-1.38965e-06
-2.49456e-06
-6.78506e-07
-2.02212e-06
-1.8777e-07
-1.3022e-06
-4.29538e-07
-2.39944e-07
6.90951e-07
-8.4036e-07
1.91946e-06
-1.68331e-06
2.85302e-06
-2.65709e-06
3.42693e-06
-3.66088e-06
3.63348e-06
-4.60782e-06
3.49799e-06
-5.42642e-06
3.06558e-06
-6.06064e-06
2.39213e-06
-6.46943e-06
1.53863e-06
-6.62613e-06
5.68885e-07
-6.51839e-06
-4.50587e-07
-6.14887e-06
-1.44956e-06
-5.5366e-06
-2.35341e-06
-4.71897e-06
-3.08396e-06
-3.7535e-06
-3.56301e-06
-2.7185e-06
-3.71964e-06
-1.71155e-06
-3.50151e-06
-8.4467e-07
-2.889e-06
-2.36182e-07
-1.91069e-06
-6.6572e-07
-2.86748e-07
9.77699e-07
-9.97097e-07
2.6298e-06
-1.9821e-06
3.83802e-06
-3.10498e-06
4.5498e-06
-4.248e-06
4.7765e-06
-5.31487e-06
4.56487e-06
-6.23018e-06
3.98089e-06
-6.93724e-06
3.09919e-06
-7.39556e-06
1.99695e-06
-7.5787e-06
7.52021e-07
-7.47323e-06
-5.5605e-07
-7.07918e-06
-1.84361e-06
-6.41194e-06
-3.02065e-06
-5.50564e-06
-3.99027e-06
-4.4171e-06
-4.65155e-06
-3.2294e-06
-4.90734e-06
-2.05297e-06
-4.67794e-06
-1.02255e-06
-3.91943e-06
-2.88284e-07
-2.64496e-06
-9.54004e-07
-3.36334e-07
1.31403e-06
-1.16038e-06
3.45385e-06
-2.28804e-06
4.96568e-06
-3.55502e-06
5.81679e-06
-4.82666e-06
6.04814e-06
-5.99911e-06
5.73732e-06
-6.99609e-06
4.97786e-06
-7.76358e-06
3.86669e-06
-8.26455e-06
2.49792e-06
-8.47468e-06
9.62151e-07
-8.38002e-06
-6.50703e-07
-7.97695e-06
-2.24668e-06
-7.27463e-06
-3.72297e-06
-6.3e-06
-4.9649e-06
-5.10471e-06
-5.84684e-06
-3.77256e-06
-6.23949e-06
-2.4249e-06
-6.02559e-06
-1.22075e-06
-5.12358e-06
-3.4771e-07
-3.518e-06
-1.30171e-06
-3.9096e-07
1.70499e-06
-1.33489e-06
4.39778e-06
-2.60499e-06
6.23577e-06
-4.00597e-06
7.21776e-06
-5.38684e-06
7.42902e-06
-6.63978e-06
6.99026e-06
-7.69247e-06
6.03055e-06
-8.49851e-06
4.67272e-06
-9.02846e-06
3.02787e-06
-9.26297e-06
1.19666e-06
-9.18869e-06
-7.24976e-07
-8.79752e-06
-2.63785e-06
-8.0894e-06
-4.43109e-06
-7.07905e-06
-5.97525e-06
-5.80635e-06
-7.11954e-06
-4.34907e-06
-7.69677e-06
-2.83483e-06
-7.53983e-06
-1.4471e-06
-6.5113e-06
-4.181e-07
-4.547e-06
-1.71981e-06
-4.53454e-07
2.15845e-06
-1.52569e-06
5.47002e-06
-2.93489e-06
7.64498e-06
-4.45013e-06
8.733e-06
-5.90634e-06
8.88523e-06
-7.19784e-06
8.28176e-06
-8.26369e-06
7.09641e-06
-9.0721e-06
5.48113e-06
-9.60691e-06
3.56268e-06
-9.85764e-06
1.44738e-06
-9.81346e-06
-7.69147e-07
-9.46142e-06
-2.98989e-06
-8.78914e-06
-5.10336e-06
-7.79303e-06
-6.97136e-06
-6.49223e-06
-8.42034e-06
-4.94799e-06
-9.24102e-06
-3.28512e-06
-9.2027e-06
-1.70868e-06
-8.08774e-06
-5.03589e-07
-5.75209e-06
-2.2234e-06
-5.28334e-07
2.68678e-06
-1.73966e-06
6.68134e-06
-3.27797e-06
9.18329e-06
-4.87162e-06
1.03267e-05
-6.347e-06
1.03606e-05
-7.61081e-06
9.54557e-06
-8.62434e-06
8.10994e-06
-9.37967e-06
6.23646e-06
-9.88098e-06
4.06399e-06
-1.01315e-05
1.69793e-06
-1.01258e-05
-7.74895e-07
-9.84633e-06
-3.26934e-06
-9.26598e-06
-5.68371e-06
-8.35633e-06
-7.88102e-06
-7.10469e-06
-9.67197e-06
-5.5407e-06
-1.0805e-05
-3.7707e-06
-1.09727e-05
-2.01217e-06
-9.84628e-06
-6.09688e-07
-7.15457e-06
-2.83309e-06
-6.23662e-07
3.31044e-06
-1.98737e-06
8.04505e-06
-3.63189e-06
1.08278e-05
-5.2419e-06
1.19367e-05
-6.64754e-06
1.17663e-05
-7.78444e-06
1.06825e-05
-8.65098e-06
8.97647e-06
-9.27427e-06
6.85976e-06
-9.6865e-06
4.47622e-06
-9.90978e-06
1.92121e-06
-9.9472e-06
-7.37475e-07
-9.77856e-06
-3.43798e-06
-9.36086e-06
-6.1014e-06
-8.6356e-06
-8.60628e-06
-7.54637e-06
-1.07612e-05
-6.07157e-06
-1.22798e-05
-4.27426e-06
-1.277e-05
-2.36364e-06
-1.17569e-05
-7.44776e-07
-8.77344e-06
-3.57787e-06
-7.54071e-07
4.06452e-06
-2.28433e-06
9.57531e-06
-3.98698e-06
1.25305e-05
-5.50906e-06
1.34587e-05
-6.70956e-06
1.29668e-05
-7.57851e-06
1.15514e-05
-8.17e-06
9.56797e-06
-8.55757e-06
7.24733e-06
-8.80767e-06
4.72632e-06
-8.965e-06
2.07853e-06
-9.04432e-06
-6.58154e-07
-9.02571e-06
-3.4566e-06
-8.85256e-06
-6.27455e-06
-8.4348e-06
-9.02405e-06
-7.66289e-06
-1.15331e-05
-6.44199e-06
-1.35007e-05
-4.75625e-06
-1.44557e-05
-2.76674e-06
-1.37464e-05
-9.22433e-07
-1.06177e-05
-4.5003e-06
-9.452e-07
5.00972e-06
-2.64847e-06
1.12786e-05
-4.31096e-06
1.41929e-05
-5.57325e-06
1.4721e-05
-6.37062e-06
1.37641e-05
-6.78319e-06
1.1964e-05
-6.9404e-06
9.72517e-06
-6.96962e-06
7.27655e-06
-6.97265e-06
4.72936e-06
-7.01637e-06
2.12225e-06
-7.12848e-06
-5.46048e-07
-7.29364e-06
-3.29143e-06
-7.44853e-06
-6.11965e-06
-7.4778e-06
-8.99478e-06
-7.21787e-06
-1.1793e-05
-6.48271e-06
-1.42359e-05
-5.13341e-06
-1.5805e-05
-3.21497e-06
-1.56648e-05
-1.16438e-06
-1.26683e-05
-5.66468e-06
-1.23731e-06
6.24702e-06
-3.08327e-06
1.31245e-05
-4.50766e-06
1.56173e-05
-5.23442e-06
1.54478e-05
-5.35513e-06
1.38848e-05
-5.08172e-06
1.16906e-05
-4.63077e-06
9.27421e-06
-4.17912e-06
6.8249e-06
-3.8542e-06
4.40444e-06
-3.73686e-06
2.00491e-06
-3.86497e-06
-4.17938e-07
-4.23249e-06
-2.92391e-06
-4.78195e-06
-5.57019e-06
-5.39096e-06
-8.38577e-06
-5.85841e-06
-1.13256e-05
-5.90652e-06
-1.41878e-05
-5.23278e-06
-1.64788e-05
-3.66625e-06
-1.72314e-05
-1.50007e-06
-1.48345e-05
-7.16476e-06
-1.6738e-06
7.92082e-06
-3.51335e-06
1.49641e-05
-4.31526e-06
1.64193e-05
-4.08881e-06
1.52213e-05
-3.19296e-06
1.2989e-05
-1.99863e-06
1.04963e-05
-7.95014e-07
8.0706e-06
2.19481e-07
5.8104e-06
9.18386e-07
3.70554e-06
1.22576e-06
1.69754e-06
1.10222e-06
-2.94392e-07
5.41204e-07
-2.36289e-06
-4.22802e-07
-4.60619e-06
-1.69246e-06
-7.11611e-06
-3.07233e-06
-9.94572e-06
-4.23076e-06
-1.30293e-05
-4.69561e-06
-1.60139e-05
-3.96716e-06
-1.79598e-05
-1.94492e-06
-1.68568e-05
-9.10967e-06
-2.23068e-06
1.01515e-05
-3.59028e-06
1.63237e-05
-3.07775e-06
1.59067e-05
-1.34383e-06
1.34874e-05
8.97107e-07
1.07481e-05
3.15506e-06
8.2383e-06
5.13823e-06
6.08743e-06
6.68882e-06
4.25981e-06
7.72597e-06
2.66839e-06
8.20669e-06
1.21682e-06
8.10402e-06
-1.91724e-07
7.39916e-06
-1.65803e-06
6.08697e-06
-3.294e-06
4.19928e-06
-5.22842e-06
1.85423e-06
-7.60067e-06
-6.61663e-07
-1.05134e-05
-2.79214e-06
-1.38834e-05
-3.66207e-06
-1.70899e-05
-2.41154e-06
-1.81073e-05
-1.15212e-05
-2.57381e-06
1.27253e-05
-2.18345e-06
1.59333e-05
7.18089e-07
1.30052e-05
4.4696e-06
9.73589e-06
8.13334e-06
7.08432e-06
1.13016e-05
5.07e-06
1.38292e-05
3.5599e-06
1.56882e-05
2.4008e-06
1.68918e-05
1.4648e-06
1.7455e-05
6.53604e-07
1.73765e-05
-1.13204e-07
1.66306e-05
-9.1216e-07
1.51673e-05
-1.83067e-06
1.29236e-05
-2.98474e-06
9.8618e-06
-4.53889e-06
6.062e-06
-6.71364e-06
1.91236e-06
-9.73381e-06
-1.55961e-06
-1.36179e-05
-2.45833e-06
-1.72086e-05
-1.39795e-05
-7.85013e-07
1.35103e-05
4.0808e-06
1.10675e-05
1.02976e-05
6.78843e-06
1.57936e-05
4.2398e-06
2.01581e-05
2.71991e-06
2.34581e-05
1.76995e-06
2.58609e-05
1.15714e-06
2.75216e-05
7.40056e-07
2.85541e-05
4.32295e-07
2.90265e-05
1.81221e-07
2.89623e-05
-4.8983e-08
2.83388e-05
-2.88701e-07
2.70819e-05
-5.73743e-07
2.50551e-05
-9.57959e-07
2.20517e-05
-1.53553e-06
1.78155e-05
-2.47742e-06
1.21724e-05
-4.09068e-06
5.47773e-06
-6.92324e-06
-1.29168e-07
-1.16017e-05
-1.41087e-05
1.35103e-05
2.45779e-05
3.13663e-05
3.56061e-05
3.8326e-05
4.00959e-05
4.12531e-05
4.19931e-05
4.24254e-05
4.26067e-05
4.25577e-05
4.2269e-05
4.16952e-05
4.07373e-05
3.92017e-05
3.67243e-05
3.26336e-05
2.57104e-05
1.41087e-05
)
;

boundaryField
{
    movingWall
    {
        type            calculated;
        value           uniform 0;
    }
    fixedWalls
    {
        type            calculated;
        value           uniform 0;
    }
    frontAndBack
    {
        type            empty;
        value           nonuniform List<scalar> 0();
    }
}


// ************************************************************************* //
