# Region type : patch outlet
# Faces  :    100
# Area   :    7.821723e-01
# Time        	sum(rhoPhi)
0             	0.000000e+00
