# Region type : patch outlet
# Faces  :    100
# Area   :    7.821723e-01
# Time        	sum(rhoPhi)
0             	0.000000e+00
0.0119048     	5.005000e+01
0.0258216     	3.497751e+01
0.0311742     	2.962583e+00
0.0371918     	2.944332e+00
0.0432472     	2.850412e+00
0.0498003     	2.755734e+00
0.0571095     	2.765579e+00
0.0637967     	2.688046e+00
0.0710541     	2.825468e+00
0.0787313     	3.236393e+00
0.0872616     	4.418956e+00
0.0955592     	6.182075e+00
0.104695      	1.068430e+01
0.113925      	1.857987e+01
0.123351      	3.317251e+01
0.132677      	5.719543e+01
0.142533      	1.023602e+02
0.152277      	1.688386e+02
0.162134      	2.672529e+02
0.171444      	3.769002e+02
0.18045       	4.938498e+02
0.189658      	5.630689e+02
0.199663      	5.642590e+02
0.209667      	4.906346e+02
0.220205      	3.612284e+02
0.230076      	2.452490e+02
0.239465      	1.529240e+02
0.249883      	7.832613e+01
0.261423      	2.347310e+01
0.273531      	-1.049347e+01
0.285639      	-2.717692e+01
0.298627      	-3.746532e+01
0.312115      	-4.330330e+01
0.326154      	-4.609836e+01
0.341128      	-4.710084e+01
0.356103      	-4.524858e+01
0.370411      	-4.123930e+01
0.385767      	-3.721284e+01
0.401517      	-3.294498e+01
0.417692      	-3.241078e+01
0.433867      	-3.715234e+01
0.450518      	-4.488239e+01
0.466679      	-6.368334e+01
0.482841      	-9.304283e+01
0.499523      	-1.191827e+02
0.516206      	-1.702329e+02
0.533484      	-1.990332e+02
0.550762      	-2.584576e+02
0.566253      	-2.967737e+02
0.582936      	-3.260749e+02
0.600314      	-3.711937e+02
0.617691      	-4.140150e+02
0.635069      	-4.671684e+02
0.652447      	-5.054418e+02
0.669824      	-5.401020e+02
0.687202      	-5.717272e+02
0.703665      	-5.943160e+02
0.719262      	-6.069243e+02
0.735776      	-6.126204e+02
0.75229       	-6.198740e+02
0.768804      	-6.214051e+02
0.785318      	-6.155763e+02
0.801832      	-6.016187e+02
0.818346      	-5.758241e+02
0.83486       	-5.524350e+02
0.851374      	-5.065996e+02
0.867888      	-4.565127e+02
0.884402      	-3.997722e+02
0.900916      	-3.330783e+02
0.91743       	-2.517598e+02
0.933944      	-1.500154e+02
0.950458      	-5.470520e+01
0.966972      	2.841614e+01
0.983486      	1.122978e+02
1             	2.109398e+02
1.01818       	2.945627e+02
1.03671       	3.425089e+02
1.05559       	3.597596e+02
1.07411       	4.109554e+02
1.09301       	4.397998e+02
1.10696       	4.238206e+02
1.12291       	3.975864e+02
1.14081       	3.656261e+02
1.16034       	3.256935e+02
1.18033       	2.833295e+02
1.20082       	2.248747e+02
1.22185       	1.675044e+02
1.24347       	1.312754e+02
1.26508       	1.044576e+02
1.2867        	5.875790e+01
1.30831       	4.062943e+01
1.32993       	2.015653e+01
1.35154       	-6.669474e+00
1.37316       	1.404191e+01
1.39554       	-1.571525e+01
1.41793       	-5.246799e+01
1.44032       	-2.318293e+01
1.46271       	-1.884516e+01
1.48607       	-2.095166e+01
1.50943       	-2.346890e+01
1.53279       	-1.426549e+01
1.55615       	-5.243423e+01
1.57951       	-7.854008e+01
1.60424       	-7.733089e+01
1.62623       	-7.154695e+01
1.64118       	-8.441816e+01
1.65749       	-7.192854e+01
1.67552       	-9.456380e+01
1.6958        	-1.598968e+02
1.71481       	-1.908643e+02
1.73065       	-2.034610e+02
1.74861       	-2.079783e+02
1.76795       	-2.349854e+02
1.78904       	-2.622909e+02
1.81248       	-2.953951e+02
1.82498       	-3.158795e+02
1.83592       	-3.054136e+02
1.84854       	-3.169129e+02
1.86231       	-3.406689e+02
1.87761       	-3.657360e+02
1.8951        	-3.959228e+02
1.91258       	-4.200307e+02
1.93006       	-4.328955e+02
1.94755       	-4.595803e+02
1.96503       	-4.728423e+02
1.98252       	-5.059592e+02
2             	-5.236991e+02
2.02041       	-5.349703e+02
2.04373       	-5.593012e+02
2.0689        	-5.929785e+02
2.09006       	-6.151317e+02
2.114         	-6.285514e+02
2.13932       	-6.533854e+02
2.16708       	-6.489139e+02
2.19793       	-6.564946e+02
2.22658       	-6.537496e+02
2.25751       	-6.047453e+02
2.28845       	-5.975687e+02
2.3181        	-5.566145e+02
2.34775       	-5.331940e+02
2.37384       	-4.999551e+02
2.40106       	-4.775940e+02
2.42958       	-4.333748e+02
2.4596        	-4.054426e+02
2.49139       	-4.018270e+02
2.52131       	-3.559792e+02
2.55322       	-3.218989e+02
2.58301       	-3.202552e+02
2.60907       	-2.894767e+02
2.63699       	-2.697188e+02
2.66292       	-2.561528e+02
2.69101       	-2.217440e+02
2.7191        	-2.116616e+02
2.75031       	-2.632359e+02
2.77112       	-2.254947e+02
2.79401       	-1.957054e+02
2.81976       	-2.053341e+02
2.84551       	-1.863480e+02
2.87126       	-2.061707e+02
2.89271       	-1.858978e+02
2.91417       	-1.659938e+02
2.93563       	-1.708598e+02
2.95709       	-1.587478e+02
2.97854       	-1.710491e+02
3             	-1.521883e+02
3.02439       	-1.463696e+02
3.05226       	-1.714427e+02
3.08386       	-1.406755e+02
3.10421       	-1.492598e+02
3.12718       	-9.489948e+01
3.15285       	-1.178873e+02
3.18109       	-1.247419e+02
3.20668       	-8.760481e+01
3.23502       	-1.090842e+02
3.26335       	-1.116052e+02
3.29404       	-9.503118e+01
3.3212        	-8.083008e+01
3.34241       	-7.825293e+01
3.36233       	-6.083101e+01
3.38432       	-7.929925e+01
3.40485       	-7.323585e+01
3.42774       	-5.347676e+01
3.45262       	-5.009182e+01
3.47451       	-8.130408e+01
3.49472       	-4.314091e+01
3.51344       	-3.634810e+01
3.52864       	-2.196171e+01
3.54548       	2.412912e+00
3.56442       	-1.002488e+01
3.57893       	-4.195918e-01
3.59513       	3.722095e+01
3.61353       	5.004935e+01
3.63286       	7.576298e+01
3.64597       	8.667643e+01
3.6558        	8.723376e+01
3.66656       	7.357037e+01
3.67847       	7.651160e+01
3.68919       	7.246105e+01
3.69715       	7.620383e+01
3.70473       	9.291030e+01
3.71316       	1.076631e+02
3.72272       	1.072517e+02
3.73339       	8.908647e+01
3.74005       	9.786298e+01
3.74793       	1.321914e+02
3.75693       	1.247928e+02
3.76531       	1.232814e+02
3.77434       	1.364529e+02
3.7846        	1.388695e+02
3.79537       	1.514616e+02
3.80467       	1.361894e+02
3.81025       	1.436391e+02
3.81679       	1.765383e+02
3.82443       	1.754235e+02
3.83279       	1.633672e+02
3.84208       	1.593144e+02
3.8496        	1.781428e+02
3.85844       	1.651683e+02
3.86788       	1.623112e+02
3.87732       	1.925290e+02
3.88754       	1.885477e+02
3.89879       	1.917120e+02
3.90891       	1.824266e+02
3.91802       	1.979672e+02
3.92713       	2.021208e+02
3.9332        	2.104678e+02
3.93877       	2.024786e+02
3.94433       	2.098413e+02
3.9499        	2.167540e+02
3.95547       	2.095321e+02
3.96103       	2.064581e+02
3.9666        	2.147686e+02
3.97217       	2.170315e+02
3.97773       	2.102664e+02
3.9833        	2.102652e+02
3.98887       	2.178797e+02
3.99443       	2.204795e+02
3.99722       	2.178663e+02
4             	2.225066e+02
4.00325       	2.248398e+02
4.00714       	2.272619e+02
4.0118        	2.174386e+02
4.01732       	2.192970e+02
4.02354       	2.292760e+02
4.02953       	2.265274e+02
4.03436       	2.189286e+02
4.03982       	2.090762e+02
4.04533       	2.268989e+02
4.05149       	2.189541e+02
4.05541       	2.076842e+02
4.05896       	2.258058e+02
4.06295       	2.252281e+02
4.06701       	2.173973e+02
4.07121       	2.052262e+02
4.07455       	2.112426e+02
4.07827       	2.142214e+02
4.08242       	2.113712e+02
4.08587       	2.253075e+02
4.08893       	2.227183e+02
4.09189       	2.175156e+02
4.0952        	2.018927e+02
4.09768       	2.034738e+02
4.09944       	2.074614e+02
4.10153       	2.110869e+02
4.10399       	2.148258e+02
4.10672       	2.171494e+02
4.10977       	2.073032e+02
4.11219       	2.022161e+02
4.1142        	2.102020e+02
4.11648       	2.117187e+02
4.11908       	2.121635e+02
4.12082       	2.090553e+02
4.12256       	2.113517e+02
4.12452       	2.144030e+02
4.12669       	2.046855e+02
4.12828       	2.120248e+02
4.13003       	2.027593e+02
4.1316        	2.071597e+02
4.13334       	2.104708e+02
4.13533       	2.084901e+02
4.13751       	1.929455e+02
4.1394        	2.084830e+02
4.14097       	1.999107e+02
4.14272       	2.063818e+02
4.1447        	2.059373e+02
4.1466        	1.965913e+02
4.14832       	2.094333e+02
4.15026       	2.024526e+02
4.15229       	2.029548e+02
4.15382       	2.076390e+02
4.15553       	2.015365e+02
4.15734       	2.080313e+02
4.15936       	1.998967e+02
4.16125       	1.864286e+02
4.16337       	2.007558e+02
4.1653        	1.853806e+02
4.16687       	2.010443e+02
4.16843       	1.949025e+02
4.16923       	1.955555e+02
4.17014       	2.015741e+02
4.17117       	1.947596e+02
4.17222       	1.947911e+02
4.17345       	1.956060e+02
4.17482       	1.901773e+02
4.17636       	1.998860e+02
4.1778        	1.876254e+02
4.17902       	1.882111e+02
4.1804        	1.980966e+02
4.18177       	2.016916e+02
4.18313       	1.921419e+02
4.18465       	1.965057e+02
4.18635       	1.922002e+02
4.18824       	1.940610e+02
4.19033       	1.830746e+02
4.1917        	1.986965e+02
4.19322       	2.005819e+02
4.19456       	1.906022e+02
4.19574       	1.822328e+02
4.19682       	1.951493e+02
4.19808       	1.949473e+02
4.19951       	1.899919e+02
4.20109       	1.920946e+02
4.20247       	1.764285e+02
4.20342       	1.824070e+02
4.20451       	1.862977e+02
4.20569       	1.866680e+02
4.207         	1.917581e+02
4.20825       	1.816879e+02
4.20894       	1.815300e+02
4.20962       	1.927885e+02
4.21044       	1.897088e+02
4.21142       	1.879452e+02
4.21254       	1.829176e+02
4.21367       	1.850773e+02
4.21445       	1.876232e+02
4.21532       	1.921762e+02
4.21619       	1.812965e+02
4.21717       	1.906867e+02
4.21789       	1.900793e+02
4.21874       	1.718172e+02
4.21964       	1.861875e+02
4.2206        	1.889438e+02
4.22137       	1.896489e+02
4.22204       	1.835579e+02
4.22279       	1.904906e+02
4.22365       	1.925398e+02
4.22451       	1.862065e+02
4.22511       	1.891718e+02
4.22583       	1.860070e+02
4.22666       	1.803770e+02
4.22737       	1.701965e+02
4.22788       	1.826844e+02
4.22849       	1.882618e+02
4.22916       	1.945754e+02
4.22995       	1.906054e+02
4.23072       	1.891405e+02
4.23159       	1.735842e+02
4.23257       	1.845311e+02
4.23367       	1.811765e+02
4.2349        	1.818904e+02
4.23618       	1.834907e+02
4.23743       	1.829357e+02
4.2387        	1.815344e+02
4.23987       	1.806865e+02
4.24088       	1.845242e+02
4.24178       	1.778831e+02
4.24264       	1.835329e+02
4.24361       	1.862111e+02
4.24469       	1.747330e+02
4.24547       	1.857261e+02
4.24635       	1.816983e+02
4.24715       	1.772912e+02
4.24805       	1.790778e+02
4.24879       	1.827833e+02
4.24947       	1.762366e+02
4.25024       	1.847713e+02
4.25114       	1.781423e+02
4.25207       	1.727058e+02
4.25311       	1.806511e+02
4.25409       	1.718925e+02
4.25517       	1.595426e+02
4.25637       	1.845220e+02
4.25713       	1.772262e+02
4.25798       	1.765164e+02
4.25894       	1.684508e+02
4.25988       	1.791203e+02
4.26094       	1.806538e+02
4.26169       	1.797744e+02
4.26244       	1.860044e+02
4.26307       	1.838064e+02
4.26353       	1.721130e+02
4.26407       	1.750962e+02
4.26472       	1.758708e+02
4.26542       	1.781938e+02
4.26605       	1.721722e+02
4.26675       	1.788952e+02
4.26741       	1.799459e+02
4.26803       	1.725590e+02
4.26876       	1.814380e+02
4.26943       	1.607010e+02
4.27018       	1.850519e+02
4.27077       	1.799478e+02
4.27113       	1.768396e+02
4.27157       	1.880822e+02
4.27206       	1.821587e+02
4.27255       	1.757742e+02
4.27312       	1.852878e+02
4.27376       	1.843280e+02
4.2745        	1.793402e+02
4.27535       	1.776394e+02
4.27635       	1.784644e+02
4.2772        	1.717647e+02
4.27803       	1.829096e+02
4.27895       	1.700943e+02
4.27978       	1.778214e+02
4.28073       	1.815351e+02
4.28172       	1.810780e+02
4.2828        	1.823558e+02
4.28372       	1.678987e+02
4.28467       	1.905519e+02
4.28562       	1.835474e+02
4.28648       	1.715163e+02
4.28714       	1.834018e+02
4.28766       	1.837486e+02
4.28826       	1.877586e+02
4.28897       	1.795418e+02
4.2898        	1.868543e+02
4.29079       	1.877556e+02
4.29191       	1.847918e+02
4.29316       	1.811223e+02
4.29428       	1.829070e+02
4.29553       	1.804223e+02
4.29695       	1.755184e+02
4.29832       	1.866365e+02
4.29968       	1.817547e+02
4.30066       	1.732935e+02
4.30157       	1.794342e+02
4.30263       	1.754405e+02
4.30381       	1.726980e+02
4.30507       	1.796446e+02
4.30592       	1.760194e+02
4.30691       	1.703335e+02
4.30795       	1.715210e+02
4.30911       	1.752173e+02
4.3103        	1.715247e+02
4.31143       	1.737807e+02
4.31223       	1.663972e+02
4.31298       	1.678283e+02
4.31377       	1.706198e+02
4.31457       	1.693785e+02
4.31536       	1.712336e+02
4.31613       	1.633721e+02
4.31659       	1.686579e+02
4.31696       	1.786587e+02
4.31738       	1.713040e+02
4.31789       	1.714365e+02
4.31847       	1.747981e+02
4.31915       	1.669814e+02
4.31986       	1.615749e+02
4.32051       	1.740169e+02
4.32113       	1.677023e+02
4.32167       	1.680152e+02
4.32229       	1.732863e+02
4.32299       	1.725746e+02
4.32354       	1.656504e+02
4.32416       	1.741461e+02
4.32486       	1.728438e+02
4.32557       	1.697728e+02
4.32627       	1.701012e+02
4.32708       	1.716332e+02
4.32801       	1.689054e+02
4.32905       	1.722802e+02
4.33024       	1.709455e+02
4.33157       	1.542538e+02
4.33307       	1.773715e+02
4.33473       	1.670154e+02
4.33613       	1.640207e+02
4.33759       	1.642972e+02
4.33866       	1.667499e+02
4.3398        	1.683649e+02
4.34113       	1.660880e+02
4.34261       	1.604865e+02
4.34404       	1.676946e+02
4.34507       	1.657973e+02
4.34601       	1.661392e+02
4.34708       	1.722299e+02
4.34824       	1.618583e+02
4.34944       	1.647985e+02
4.35077       	1.675617e+02
4.35185       	1.523944e+02
4.35305       	1.651450e+02
4.35439       	1.642679e+02
4.35543       	1.377734e+02
4.35654       	1.719197e+02
4.35759       	1.644037e+02
4.35858       	1.519987e+02
4.35947       	1.700553e+02
4.36043       	1.679022e+02
4.36152       	1.620600e+02
4.36249       	1.534939e+02
4.3633        	1.695358e+02
4.36426       	1.681029e+02
4.36536       	1.658382e+02
4.3665        	1.595550e+02
4.36779       	1.639878e+02
4.36925       	1.622061e+02
4.37009       	1.636845e+02
4.3708        	1.621688e+02
4.37162       	1.605283e+02
4.37255       	1.638018e+02
4.37359       	1.646261e+02
4.37471       	1.586437e+02
4.37596       	1.635033e+02
4.37675       	1.669333e+02
4.37749       	1.690679e+02
4.3783        	1.692926e+02
4.37914       	1.653751e+02
4.38007       	1.671916e+02
4.38093       	1.710686e+02
4.38188       	1.665023e+02
4.38271       	1.599384e+02
4.38367       	1.606815e+02
4.38464       	1.657116e+02
4.38573       	1.654372e+02
4.38695       	1.624087e+02
4.3884        	1.600425e+02
4.39003       	1.652396e+02
4.39173       	1.683783e+02
4.39362       	1.563657e+02
4.39536       	1.554063e+02
4.39671       	1.683720e+02
4.39824       	1.623482e+02
4.39996       	1.662193e+02
4.40192       	1.669823e+02
4.40397       	1.582395e+02
4.40589       	1.716039e+02
4.40803       	1.681777e+02
4.41015       	1.600350e+02
4.41237       	1.617286e+02
4.41469       	1.564590e+02
4.4163        	1.632604e+02
4.41814       	1.660918e+02
4.42009       	1.588426e+02
4.42189       	1.575025e+02
4.42372       	1.657904e+02
4.42513       	1.591907e+02
4.4267        	1.665583e+02
4.42845       	1.639898e+02
4.43005       	1.564719e+02
4.43164       	1.599393e+02
4.43293       	1.488591e+02
4.43425       	1.641820e+02
4.43573       	1.601690e+02
4.43741       	1.504572e+02
4.43927       	1.628573e+02
4.4405        	1.581984e+02
4.44185       	1.585330e+02
4.44277       	1.535527e+02
4.44363       	1.563295e+02
4.44426       	1.619704e+02
4.44496       	1.640639e+02
4.44553       	1.538500e+02
4.44617       	1.603858e+02
4.44688       	1.612813e+02
4.44752       	1.568359e+02
4.44797       	1.560845e+02
4.44827       	1.595086e+02
4.44863       	1.623187e+02
4.44904       	1.608574e+02
4.44952       	1.491346e+02
4.44991       	1.579075e+02
4.45037       	1.558131e+02
4.45091       	1.542630e+02
4.45152       	1.566097e+02
4.45221       	1.520915e+02
4.45304       	1.520949e+02
4.45398       	1.562436e+02
4.45509       	1.544922e+02
4.45636       	1.478021e+02
4.45745       	1.503415e+02
4.45829       	1.488892e+02
4.45897       	1.501231e+02
4.45953       	1.499424e+02
4.4602        	1.548056e+02
4.46096       	1.548199e+02
4.46135       	1.550114e+02
4.46183       	1.592541e+02
4.46239       	1.472605e+02
4.46303       	1.504283e+02
4.46377       	1.529642e+02
4.4646        	1.478205e+02
4.46551       	1.551390e+02
4.46637       	1.457619e+02
4.46727       	1.534843e+02
4.46826       	1.577477e+02
4.46902       	1.434883e+02
4.46953       	1.544092e+02
4.47011       	1.534499e+02
4.47075       	1.503425e+02
4.47133       	1.520638e+02
4.4719        	1.513573e+02
4.47246       	1.516835e+02
4.47314       	1.523474e+02
4.47396       	1.466348e+02
4.47463       	1.504831e+02
4.4754        	1.548012e+02
4.47602       	1.505695e+02
4.47653       	1.541213e+02
4.47706       	1.560707e+02
4.47756       	1.583221e+02
4.47816       	1.564328e+02
4.47888       	1.556501e+02
4.47975       	1.479403e+02
4.48071       	1.524065e+02
4.4818        	1.560583e+02
4.48289       	1.477442e+02
4.48396       	1.514561e+02
4.48506       	1.432625e+02
4.48627       	1.563795e+02
4.48763       	1.480516e+02
4.48878       	1.426205e+02
4.48999       	1.474006e+02
4.49108       	1.537383e+02
4.4923        	1.538472e+02
4.49358       	1.435332e+02
4.49463       	1.471737e+02
4.49573       	1.496596e+02
4.49695       	1.444414e+02
4.49756       	1.403987e+02
4.49825       	1.542148e+02
4.49905       	1.517281e+02
4.49995       	1.416804e+02
4.50089       	1.417321e+02
4.50193       	1.499645e+02
4.50262       	1.474477e+02
4.5034        	1.480318e+02
4.5041        	1.458226e+02
4.5049        	1.502155e+02
4.50579       	1.472270e+02
4.5065        	1.498448e+02
4.50732       	1.449574e+02
4.50821       	1.471279e+02
4.50898       	1.409623e+02
4.50956       	1.486989e+02
4.51008       	1.479259e+02
4.51065       	1.535721e+02
4.51121       	1.481850e+02
4.51183       	1.514407e+02
4.51253       	1.448434e+02
4.5133        	1.461746e+02
4.51415       	1.401616e+02
4.51474       	1.422004e+02
4.51541       	1.468278e+02
4.51615       	1.441671e+02
4.51686       	1.511112e+02
4.51766       	1.447586e+02
4.5182        	1.415287e+02
4.51863       	1.491440e+02
4.51912       	1.458549e+02
4.51968       	1.444538e+02
4.52033       	1.418911e+02
4.52106       	1.442544e+02
4.52164       	1.401600e+02
4.52208       	1.466094e+02
4.5226        	1.417653e+02
4.52319       	1.432468e+02
4.52355       	1.426823e+02
4.52396       	1.435734e+02
4.52443       	1.520274e+02
4.52496       	1.463690e+02
4.52543       	1.394387e+02
4.52592       	1.493019e+02
4.52629       	1.553094e+02
4.52671       	1.373317e+02
4.52719       	1.443082e+02
4.52771       	1.448382e+02
4.5282        	1.455224e+02
4.52874       	1.438033e+02
4.5293        	1.460746e+02
4.5298        	1.452751e+02
4.53037       	1.476639e+02
4.53102       	1.415205e+02
4.53148       	1.431492e+02
4.53195       	1.415369e+02
4.53248       	1.524672e+02
4.53307       	1.410332e+02
4.53348       	1.425657e+02
4.53397       	1.480113e+02
4.53455       	1.393361e+02
4.53516       	1.440956e+02
4.53554       	1.478141e+02
4.53591       	1.504568e+02
4.53632       	1.447724e+02
4.53677       	1.401182e+02
4.53716       	1.472112e+02
4.53742       	1.306269e+02
4.53773       	1.363124e+02
4.53808       	1.437295e+02
4.53838       	1.440207e+02
4.53872       	1.450932e+02
4.53904       	1.412609e+02
4.53941       	1.419397e+02
4.53983       	1.447185e+02
4.54029       	1.440623e+02
4.54082       	1.371511e+02
4.5414        	1.292065e+02
4.54187       	1.468711e+02
4.54227       	1.434128e+02
4.54267       	1.472918e+02
4.54312       	1.436178e+02
4.54362       	1.398625e+02
4.54417       	1.310610e+02
4.54462       	1.364275e+02
4.54512       	1.476350e+02
4.54566       	1.353832e+02
4.54613       	1.419876e+02
4.5466        	1.465793e+02
4.54715       	1.373211e+02
4.54751       	1.421691e+02
4.54781       	1.433984e+02
4.54806       	1.408027e+02
4.54834       	1.451530e+02
4.54867       	1.444615e+02
4.54907       	1.429975e+02
4.54951       	1.449721e+02
4.55          	1.478332e+02
4.55055       	1.291832e+02
4.55117       	1.423275e+02
4.55186       	1.456132e+02
4.55262       	1.430008e+02
4.55342       	1.324666e+02
4.55432       	1.410115e+02
4.55506       	1.369609e+02
4.55588       	1.365632e+02
4.55658       	1.408333e+02
4.5571        	1.372652e+02
4.55768       	1.402837e+02
4.55822       	1.370348e+02
4.55855       	1.375409e+02
4.55894       	1.410595e+02
4.55938       	1.393589e+02
4.55967       	1.348272e+02
4.56001       	1.406961e+02
4.5604        	1.197201e+02
4.56082       	1.345172e+02
4.56129       	1.432688e+02
4.56158       	1.376204e+02
4.56191       	1.337023e+02
4.56231       	1.435767e+02
4.56279       	1.428070e+02
4.56335       	1.406812e+02
4.564         	1.381400e+02
4.56477       	1.385829e+02
4.56544       	1.341730e+02
4.56614       	1.329761e+02
4.56672       	1.344053e+02
4.56725       	1.363777e+02
4.56771       	1.365506e+02
4.56809       	1.382645e+02
4.56844       	1.365165e+02
4.56884       	1.443839e+02
4.5693        	1.409242e+02
4.56984       	1.387274e+02
4.57047       	1.382739e+02
4.57117       	1.350075e+02
4.57195       	1.390619e+02
4.57287       	1.298610e+02
4.57381       	1.355784e+02
4.57464       	1.378330e+02
4.57545       	1.362196e+02
4.57639       	1.363807e+02
4.57736       	1.348067e+02
4.57832       	1.329909e+02
4.57939       	1.401386e+02
4.58042       	1.341543e+02
4.58093       	1.385915e+02
4.58153       	1.355886e+02
4.58211       	1.355551e+02
4.58278       	1.327133e+02
4.58352       	1.351514e+02
4.58404       	1.345451e+02
4.58461       	1.384375e+02
4.58524       	1.383318e+02
4.58569       	1.389428e+02
4.58609       	1.356355e+02
4.58657       	1.334105e+02
4.58715       	1.381995e+02
4.58781       	1.414162e+02
4.58841       	1.380492e+02
4.58876       	1.305291e+02
4.58917       	1.378715e+02
4.58963       	1.371798e+02
4.59015       	1.377412e+02
4.59077       	1.370391e+02
4.5915        	1.402441e+02
4.59235       	1.361224e+02
4.59329       	1.361869e+02
4.59414       	1.374819e+02
4.59494       	1.368532e+02
4.59553       	1.375293e+02
4.5962        	1.372774e+02
4.59695       	1.348134e+02
4.59767       	1.378873e+02
4.5983        	1.377303e+02
4.5987        	1.306632e+02
4.59913       	1.383775e+02
4.59962       	1.373518e+02
4.60013       	1.361505e+02
4.6007        	1.408675e+02
4.60119       	1.389731e+02
4.60175       	1.380296e+02
4.60217       	1.372200e+02
4.60265       	1.355719e+02
4.60319       	1.373302e+02
4.60373       	1.344361e+02
4.60412       	1.408480e+02
4.60456       	1.355414e+02
4.60506       	1.366268e+02
4.60564       	1.378378e+02
4.60623       	1.368411e+02
4.60692       	1.343886e+02
4.6077        	1.321136e+02
4.6084        	1.348366e+02
4.60919       	1.350858e+02
4.60959       	1.401145e+02
4.61007       	1.421695e+02
4.61065       	1.367463e+02
4.61132       	1.345311e+02
4.61206       	1.367923e+02
4.6129        	1.321204e+02
4.61385       	1.336607e+02
4.61475       	1.345689e+02
4.61574       	1.346923e+02
4.61666       	1.359560e+02
4.61768       	1.317433e+02
4.61868       	1.338394e+02
4.6198        	1.350510e+02
4.62084       	1.301515e+02
4.62193       	1.286357e+02
4.62274       	1.301085e+02
4.62351       	1.307749e+02
4.62439       	1.296152e+02
4.62536       	1.325391e+02
4.62643       	1.330402e+02
4.62717       	1.216151e+02
4.62793       	1.229279e+02
4.62861       	1.325706e+02
4.6294        	1.262141e+02
4.63032       	1.272112e+02
4.63135       	1.276696e+02
4.63241       	1.246054e+02
4.63359       	1.242257e+02
4.63459       	1.247177e+02
4.63557       	1.284837e+02
4.63655       	1.283920e+02
4.63721       	1.291037e+02
4.63779       	1.305200e+02
4.6383        	1.293504e+02
4.63869       	1.243740e+02
4.63915       	1.302320e+02
4.63966       	1.314620e+02
4.64022       	1.290098e+02
4.64078       	1.308110e+02
4.64118       	1.287111e+02
4.64163       	1.298673e+02
4.64216       	1.349847e+02
4.64268       	1.366487e+02
4.64327       	1.387260e+02
4.64385       	1.388765e+02
4.64451       	1.343217e+02
4.64528       	1.306602e+02
4.64615       	1.339935e+02
4.64713       	1.304346e+02
4.64807       	1.286451e+02
4.64907       	1.282842e+02
4.64981       	1.273003e+02
4.65066       	1.283460e+02
4.65168       	1.233947e+02
4.65283       	1.285916e+02
4.65417       	1.227870e+02
4.65569       	1.258884e+02
4.65743       	1.273326e+02
4.65943       	1.209903e+02
4.66123       	1.257154e+02
4.66266       	1.206395e+02
4.6636        	1.273760e+02
4.66466       	1.224713e+02
4.66554       	1.227834e+02
4.66652       	1.190058e+02
4.6673        	1.212081e+02
4.66817       	1.257964e+02
4.66918       	1.225299e+02
4.67015       	1.134336e+02
4.67085       	1.228018e+02
4.67165       	1.245033e+02
4.67256       	1.176135e+02
4.67358       	1.247030e+02
4.67458       	1.225205e+02
4.67576       	1.234328e+02
4.67707       	1.177803e+02
4.67847       	1.212505e+02
4.68003       	1.195063e+02
4.68087       	1.210830e+02
4.6818        	1.189050e+02
4.68273       	1.216810e+02
4.68355       	1.188456e+02
4.68429       	1.237973e+02
4.68516       	1.233144e+02
4.68614       	1.238651e+02
4.68724       	1.120297e+02
4.68853       	1.174813e+02
4.69003       	1.202076e+02
4.6917        	1.149566e+02
4.69328       	1.181588e+02
4.69503       	1.178235e+02
4.69621       	1.158490e+02
4.69758       	1.184793e+02
4.6991        	1.144192e+02
4.70061       	1.181417e+02
4.70233       	1.155731e+02
4.70425       	1.126958e+02
4.70573       	1.146898e+02
4.70703       	1.131358e+02
4.70848       	1.150209e+02
4.70966       	1.119805e+02
4.7108        	1.171403e+02
4.71205       	1.183157e+02
4.713         	1.179879e+02
4.71407       	1.173397e+02
4.7151        	1.159203e+02
4.71566       	1.164811e+02
4.71629       	1.196578e+02
4.71691       	1.174786e+02
4.71747       	1.200278e+02
4.71813       	1.120569e+02
4.71891       	1.137430e+02
4.71978       	1.154754e+02
4.72075       	1.157809e+02
4.72158       	1.197260e+02
4.72224       	1.176436e+02
4.72285       	1.173420e+02
4.72354       	1.197744e+02
4.72431       	1.188299e+02
4.7252        	1.179948e+02
4.72625       	1.155117e+02
4.72745       	1.171755e+02
4.7288        	1.153506e+02
4.72988       	1.199522e+02
4.73102       	1.159328e+02
4.7323        	1.138274e+02
4.73368       	1.161383e+02
4.73522       	1.164435e+02
4.73692       	1.171013e+02
4.73817       	1.185524e+02
4.73922       	1.170340e+02
4.73998       	1.168064e+02
4.74085       	1.132680e+02
4.74165       	1.145503e+02
4.74258       	1.219303e+02
4.74364       	1.069244e+02
4.74486       	1.153232e+02
4.74625       	1.157032e+02
4.74783       	1.147427e+02
4.74938       	1.181681e+02
4.75052       	1.150567e+02
4.75178       	1.165198e+02
4.75308       	1.138118e+02
4.75382       	1.143488e+02
4.75466       	1.164578e+02
4.75561       	1.169759e+02
4.75635       	1.183025e+02
4.75718       	1.165387e+02
4.75792       	1.177106e+02
4.75856       	1.116751e+02
4.7593        	1.162660e+02
4.75998       	1.177077e+02
4.76058       	1.153123e+02
4.76124       	1.156934e+02
4.762         	1.188510e+02
4.76255       	1.159572e+02
4.76316       	1.180680e+02
4.7638        	1.161444e+02
4.76439       	1.166540e+02
4.76493       	1.162171e+02
4.76544       	1.144556e+02
4.76575       	1.201658e+02
4.76603       	1.193732e+02
4.76633       	9.893276e+01
4.76655       	1.197607e+02
4.76679       	1.221065e+02
4.76709       	1.190155e+02
4.76743       	1.150749e+02
4.76784       	1.168402e+02
4.7683        	1.173384e+02
4.76882       	1.158153e+02
4.76928       	1.167616e+02
4.76978       	1.171668e+02
4.77025       	1.159404e+02
4.77064       	1.180751e+02
4.77099       	1.176180e+02
4.77137       	1.205198e+02
4.77176       	1.153039e+02
4.77217       	1.128749e+02
4.77248       	1.161499e+02
4.77279       	1.194846e+02
4.77315       	1.185652e+02
4.77357       	1.176696e+02
4.77403       	1.167114e+02
4.77456       	1.152822e+02
4.77517       	1.183175e+02
4.77588       	1.174979e+02
4.77673       	1.170079e+02
4.77771       	1.161896e+02
4.77882       	1.177721e+02
4.78007       	1.180209e+02
4.78147       	1.182350e+02
4.78293       	1.169275e+02
4.78451       	1.169944e+02
4.7862        	1.167105e+02
4.78808       	1.162791e+02
4.78956       	1.160464e+02
4.79094       	1.166617e+02
4.79231       	1.162625e+02
4.79385       	1.158312e+02
4.79504       	1.160622e+02
4.79639       	1.179009e+02
4.7979        	1.171509e+02
4.7995        	1.163180e+02
4.80136       	1.169452e+02
4.80347       	1.164280e+02
4.80593       	1.167359e+02
4.80874       	1.150676e+02
4.81193       	1.100865e+02
4.81512       	1.106822e+02
4.8178        	1.086734e+02
4.82047       	1.090927e+02
4.82308       	1.083644e+02
4.82568       	1.085749e+02
4.82858       	1.078204e+02
4.83194       	1.055228e+02
4.83568       	1.052616e+02
4.83833       	1.051473e+02
4.84144       	1.035332e+02
4.84413       	9.997269e+01
4.84707       	1.032147e+02
4.85054       	1.012579e+02
4.85458       	9.912079e+01
4.85943       	9.865232e+01
4.86505       	9.718350e+01
4.87148       	9.602103e+01
4.87862       	9.473979e+01
4.88671       	9.230992e+01
4.89426       	9.145646e+01
4.90048       	8.936602e+01
4.90759       	8.825699e+01
4.91529       	8.555426e+01
4.92376       	8.376100e+01
4.93329       	8.177533e+01
4.94282       	7.930098e+01
4.95235       	7.406362e+01
4.96188       	7.144427e+01