# Region type : patch outlet
# Faces  :    100
# Area   :    7.821723e-01
# Time        	sum(rhoPhi)
0             	3.914772e+00
0.0119048     	3.914772e-01
0.0260204     	5.679594e+00
0.0428132     	1.140276e+01
0.0627546     	2.072736e+01
0.0861857     	3.734803e+01
0.106954      	6.697878e+01
0.115975      	1.203884e+02
0.119869      	2.173828e+02
0.121565      	3.935907e+02
0.122312      	7.139054e+02
0.122644      	1.296941e+03
0.122791      	2.360104e+03
0.122857      	4.303115e+03
0.122887      	7.863566e+03
0.1229        	1.440850e+04
0.122906      	2.648450e+04
0.122909      	4.886337e+04
0.12291       	9.054741e+04
0.12291       	1.686503e+05
0.12291       	3.159841e+05
0.122911      	5.960504e+05
0.122911      	1.132987e+06
0.122911      	2.172056e+06
0.122911      	4.203181e+06
0.122911      	8.215924e+06
0.122911      	1.623114e+07
0.122911      	3.242005e+07
0.122911      	6.548015e+07
0.122911      	1.337190e+08
0.122911      	2.760078e+08
0.122911      	5.755247e+08
0.122911      	1.211498e+09
0.122911      	2.572478e+09
0.122911      	5.505276e+09
0.122911      	1.186390e+10
0.122911      	2.572327e+10
0.122911      	5.607004e+10
0.122911      	1.227792e+11
0.122911      	2.699120e+11
0.122911      	5.953466e+11
0.122911      	1.316884e+12
0.122911      	2.919892e+12
0.122911      	6.487324e+12
0.122911      	1.443802e+13
0.122911      	3.217933e+13
0.122911      	7.180892e+13
0.122911      	1.604109e+14
0.122911      	3.586562e+14
0.122911      	8.025244e+14
0.122911      	1.796914e+15
0.122911      	4.025745e+15
0.122911      	9.023636e+15
0.122911      	2.023512e+16
0.122911      	4.539407e+16
0.122911      	1.018686e+17
0.122911      	2.286712e+17
0.122911      	5.134745e+17
0.122911      	1.153282e+18
0.122911      	2.590693e+18
0.122911      	5.820298e+18
0.122911      	1.307714e+19
0.122911      	2.938393e+19
0.122911      	6.602803e+19
0.122911      	1.483751e+20
0.122911      	3.334291e+20
0.122911      	7.492912e+20
0.122911      	1.683834e+21
0.122911      	3.783951e+21
0.122911      	8.503273e+21
0.122911      	1.910812e+22
0.122911      	4.293768e+22
0.122911      	9.648172e+22
0.122911      	2.167879e+23
0.122911      	4.870875e+23
0.122911      	1.094356e+24
0.122911      	2.458603e+24
0.122911      	5.523256e+24
0.122911      	1.240731e+25
0.122911      	2.786983e+25
0.122911      	6.259866e+25
0.122911      	1.405947e+26
0.122911      	3.157518e+26
0.122911      	7.090797e+26
0.122911      	1.592269e+27
0.122911      	3.575278e+27
0.122911      	8.027400e+27
0.122911      	1.802236e+28
0.122911      	4.045946e+28
0.122911      	9.082396e+28
0.122911      	2.038697e+29
0.122911      	4.575907e+29
0.122911      	1.027008e+30
0.122911      	2.304854e+30
0.122911      	5.172322e+30
0.122911      	1.160649e+31
0.122911      	2.604290e+31
0.122911      	5.843216e+31
0.122911      	1.310959e+32
0.122911      	2.941041e+32
0.122911      	6.597644e+32
0.122911      	1.479970e+33
0.122911      	3.319659e+33
0.122911      	7.445801e+33
0.122911      	1.669964e+34
0.122911      	3.745254e+34
0.122911      	8.399123e+34
0.122911      	1.883501e+35
0.122911      	4.223549e+35
0.122911      	9.470422e+35
0.122911      	2.123449e+36
0.122911      	4.760970e+36
0.122911      	1.067409e+37
0.122911      	2.393028e+37
0.122911      	5.364720e+37
0.122911      	1.202622e+38
0.122911      	2.695839e+38
0.122911      	6.042858e+38
0.122911      	1.354486e+39
0.122911      	3.035925e+39
0.122911      	6.804437e+39
0.122911      	1.525030e+40
0.122911      	3.417828e+40
0.122911      	7.659631e+40
0.122911      	1.716531e+41
0.122911      	3.846642e+41
0.122911      	8.619831e+41
0.122911      	1.931536e+42
0.122911      	4.328069e+42
0.122911      	9.697795e+42
0.122911      	2.172901e+43
0.122911      	4.868499e+43
0.122911      	1.090784e+44
0.122911      	2.443823e+44
0.122911      	5.475053e+44
0.122911      	1.226576e+45
0.122911      	2.747814e+45
0.122911      	6.155552e+45
0.122911      	1.378904e+46
0.122911      	3.088792e+46
0.122911      	6.918813e+46
0.122911      	1.549756e+47
0.122911      	3.471236e+47
0.122911      	7.774899e+47
0.122911      	1.741389e+48
0.122911      	3.900211e+48
0.122911      	8.735183e+48
0.122911      	1.956357e+49
0.122911      	4.381442e+49
0.122911      	9.812484e+49
0.122911      	2.197527e+50
0.122911      	4.921341e+50
0.122911      	1.102115e+51
0.122911      	2.468111e+51
0.122911      	5.527096e+51
0.122911      	1.237726e+52
0.122911      	2.771706e+52
0.122911      	6.206771e+52
0.122911      	1.389889e+53
0.122911      	3.112352e+53
0.122911      	6.969332e+53
0.122911      	1.560585e+54
0.122911      	3.494433e+54
0.122911      	7.824551e+54
0.122911      	1.752006e+55
0.122911      	3.922875e+55
0.122911      	8.783494e+55
0.122911      	1.966638e+56
0.122911      	4.403279e+56
0.122911      	9.858782e+56
0.122911      	2.207323e+57
0.122911      	4.942024e+57
0.122911      	1.106474e+58
0.122911      	2.477283e+58
0.122911      	5.546381e+58
0.122911      	1.241776e+59
0.122911      	2.780208e+59
0.122911      	6.224614e+59
0.122911      	1.393635e+60
0.122911      	3.120235e+60
0.122911      	6.985965e+60
0.122911      	1.564104e+61
0.122911      	3.501918e+61
0.122911      	7.840544e+61
0.122911      	1.755453e+62
0.122911      	3.930363e+62
0.122911      	8.799901e+62
0.122911      	1.970263e+63
0.122911      	4.411351e+63
0.122911      	9.876866e+63
0.122911      	2.211400e+64
0.122911      	4.951265e+64
0.122911      	1.108576e+65
0.122911      	2.482078e+65
0.122911      	5.557330e+65
0.122911      	1.244279e+66
0.122911      	2.785934e+66
0.122911      	6.237711e+66
0.122911      	1.396631e+67
0.122911      	3.127093e+67
0.122911      	7.001694e+67
0.122911      	1.567723e+68
0.122911      	3.510263e+68
0.122911      	7.859859e+68
0.122911      	1.759929e+69
0.122911      	3.940768e+69
0.122911      	8.824143e+69
0.122911      	1.975926e+70
0.122911      	4.424615e+70
0.122911      	9.908033e+70
0.122911      	2.218743e+71
0.122911      	4.968601e+71
0.122911      	1.112677e+72
0.122911      	2.491793e+72
0.122911      	5.580373e+72
0.122911      	1.249749e+73
0.122911      	2.798922e+73
0.122911      	6.268548e+73
0.122911      	1.403947e+74
0.122911      	3.144430e+74
0.122911      	7.042721e+74
0.122911      	1.577415e+75
0.122911      	3.533120e+75
0.122911      	7.913659e+75
0.122911      	1.772566e+76
0.122911      	3.970382e+76
0.122911      	8.893382e+76
0.122911      	1.992075e+77
0.122911      	4.462188e+77
0.122911      	9.995220e+77
0.122911      	2.238918e+78
0.122911      	5.015154e+78
0.122911      	1.123387e+79
0.122911      	2.516357e+79
0.122911      	5.636521e+79
0.122911      	1.262539e+80
0.122911      	2.827953e+80
0.122911      	6.334193e+80
0.122911      	1.418734e+81
0.122911      	3.177605e+81
0.122911      	7.116820e+81
0.122911      	1.593886e+82
0.122911      	3.569533e+82
0.122911      	7.993678e+82
0.122911      	1.790032e+83
0.122911      	4.008223e+83
0.122911      	8.974682e+83
0.122911      	2.009374e+84
0.122911      	4.498577e+84
0.122911      	1.007073e+85
0.122911      	2.254324e+85
0.122911      	5.045919e+85
0.122911      	1.129358e+86
0.122911      	2.527493e+86
0.122911      	5.656057e+86
0.122911      	1.265618e+87
0.122911      	2.831759e+87
0.122911      	6.335405e+87
0.122911      	1.417283e+88
0.122911      	3.170317e+88
0.122911      	7.091084e+88
0.122911      	1.585938e+89
0.122911      	3.546692e+89
0.122911      	7.930948e+89
0.122911      	1.773338e+90
0.122911      	3.964823e+90
0.122911      	8.863852e+90
0.122911      	1.981473e+91
0.122911      	4.429165e+91
0.122911      	9.899753e+91
0.122911      	2.212569e+92
0.122911      	4.944708e+92
0.122911      	1.104987e+93
0.122911      	2.469155e+93
0.122911      	5.517162e+93
0.122911      	1.232711e+94
0.122911      	2.754148e+94
0.122911      	6.153125e+94
0.122911      	1.374640e+95
0.122911      	3.070921e+95
0.122911      	6.860203e+95
0.122911      	1.532483e+96
0.122911      	3.423312e+96
0.122911      	7.647003e+96
0.122911      	1.708172e+97
0.122911      	3.815655e+97
0.122911      	8.523254e+97
0.122911      	1.903890e+98
0.122911      	4.252847e+98
0.122911      	9.499939e+98
0.122911      	2.122102e+99
0.122911      	4.740427e+99
0.122911      	1.058950e+100
0.122911      	2.365600e+100
0.122911      	5.284648e+100
0.122911      	1.180592e+101
0.122911      	2.637511e+101
0.122911      	5.892506e+101
