/*--------------------------------*- C++ -*----------------------------------*\
  =========                 |
  \\      /  F ield         | OpenFOAM: The Open Source CFD Toolbox
   \\    /   O peration     | Website:  https://openfoam.org
    \\  /    A nd           | Version:  8
     \\/     M anipulation  |
\*---------------------------------------------------------------------------*/
FoamFile
{
    version     2.0;
    format      ascii;
    class       volScalarField;
    location    "0.1";
    object      p;
}
// * * * * * * * * * * * * * * * * * * * * * * * * * * * * * * * * * * * * * //

dimensions      [0 2 -2 0 0 0 0];

internalField   nonuniform List<scalar> 
400
(
-2.23126e-08
-0.00573238
-0.0127361
-0.018058
-0.0199809
-0.0177441
-0.0112917
-0.00106449
0.0121526
0.027333
0.0432861
0.05873
0.0723767
0.0830396
0.0897709
0.0920299
0.0898852
0.0842321
0.0769972
0.0712702
0.00568223
-0.000213774
-0.0056907
-0.00933139
-0.0103141
-0.00810803
-0.00264177
0.00577195
0.0165426
0.0288738
0.0418257
0.0543798
0.065515
0.0743014
0.0800115
0.0822466
0.0810827
0.0771565
0.0714765
0.0656069
0.013109
0.00494461
-0.000973678
-0.00431416
-0.00509706
-0.0030463
0.00183595
0.00925347
0.0187002
0.0295046
0.04087
0.0519247
0.061785
0.0696343
0.074814
0.076925
0.0759562
0.0722869
0.066108
0.0579521
0.0198008
0.00853016
0.00118192
-0.00262555
-0.00361199
-0.00172834
0.00291523
0.00997741
0.018966
0.0292603
0.0401285
0.0507605
0.0603163
0.0679913
0.0730933
0.0751335
0.0739652
0.069743
0.0620036
0.0506507
0.0240955
0.0095622
0.000507908
-0.00398145
-0.0052278
-0.00338
0.00133949
0.00852236
0.0176591
0.0281429
0.039266
0.0502341
0.0601996
0.0683135
0.0737917
0.0760042
0.0746414
0.0696505
0.0600098
0.0451934
0.0247653
0.00693754
-0.00388611
-0.00905566
-0.0104402
-0.00836961
-0.00317984
0.00464131
0.0145477
0.0259228
0.0380558
0.0501366
0.0612723
0.0705258
0.0769715
0.0797899
0.0784724
0.0727519
0.0610833
0.0426162
0.0207448
-0.000426814
-0.0129809
-0.0186752
-0.0199258
-0.0172479
-0.0110985
-0.00205551
0.00928716
0.0222917
0.0362303
0.05026
0.0634184
0.0746458
0.0828288
0.0869026
0.0861036
0.0799055
0.0661968
0.0438238
0.0109258
-0.0136861
-0.0278452
-0.0337537
-0.034437
-0.030628
-0.0229247
-0.0120053
0.00148509
0.0168895
0.0334675
0.0503439
0.0664805
0.0806731
0.0915784
0.0978193
0.0982933
0.0921181
0.076478
0.0498513
-0.00599593
-0.0341977
-0.0497329
-0.0553556
-0.0548391
-0.0492024
-0.0392198
-0.0256825
-0.00927981
0.00933054
0.02942
0.0501062
0.070291
0.0886235
0.103496
0.113143
0.116006
0.110683
0.0933962
0.0620894
-0.0316613
-0.0636459
-0.0801547
-0.0847082
-0.0820743
-0.073676
-0.0605164
-0.0435111
-0.0233748
-0.000726102
0.023769
0.0492755
0.0746838
0.0985244
0.118912
0.133615
0.140466
0.137303
0.11896
0.0825212
-0.068238
-0.104208
-0.120957
-0.123188
-0.117081
-0.104642
-0.0871731
-0.0657168
-0.0409728
-0.0134536
0.0163214
0.0476575
0.0795266
0.110417
0.138195
0.16011
0.173215
0.174243
0.155979
0.114041
-0.118762
-0.158817
-0.174422
-0.172273
-0.160648
-0.142389
-0.119161
-0.0921129
-0.061853
-0.0286807
0.00715601
0.045243
0.0847849
0.124375
0.161742
0.193627
0.21615
0.224507
0.208432
0.160968
-0.187831
-0.2316
-0.24338
-0.233423
-0.213172
-0.186603
-0.155765
-0.121824
-0.0851534
-0.0456785
-0.00320088
0.0423384
0.0905969
0.140517
0.18993
0.23522
0.271529
0.292044
0.282037
0.229967
-0.283102
-0.328625
-0.331265
-0.307772
-0.274222
-0.235934
-0.195203
-0.152971
-0.109123
-0.0629692
-0.0136359
0.0396526
0.0972947
0.158943
0.222953
0.285777
0.341799
0.381888
0.385115
0.331884
-0.418468
-0.45903
-0.441844
-0.395368
-0.341743
-0.28734
-0.234155
-0.18238
-0.130967
-0.0782701
-0.0224638
0.0382164
0.105244
0.179448
0.260376
0.345389
0.428943
0.499934
0.529783
0.485315
-0.619804
-0.636219
-0.5783
-0.493916
-0.411013
-0.335416
-0.267466
-0.205557
-0.147006
-0.0887627
-0.0277571
0.0390165
0.114427
0.201009
0.300411
0.412358
0.533269
0.651925
0.732797
0.722223
-0.935398
-0.878166
-0.741543
-0.597861
-0.474356
-0.372599
-0.288722
-0.217492
-0.153553
-0.0919547
-0.0281413
0.0422861
0.123816
0.221192
0.339295
0.482415
0.652158
0.841418
1.01523
1.09728
-1.47613
-1.20648
-0.920494
-0.691491
-0.517455
-0.387661
-0.29008
-0.213216
-0.147854
-0.0868146
-0.0240852
0.0459891
0.129453
0.233522
0.367455
0.542917
0.771425
1.05936
1.40323
1.72993
-2.53955
-1.63056
-1.04459
-0.711233
-0.496077
-0.352389
-0.254721
-0.183618
-0.126029
-0.073289
-0.018831
0.0433062
0.119754
0.219291
0.355241
0.548303
0.826594
1.23667
1.91166
2.92406
-4.36667
-2.04474
-0.973823
-0.563623
-0.358375
-0.240661
-0.170524
-0.124005
-0.0874826
-0.0532865
-0.0162332
0.0282281
0.0852554
0.162389
0.27302
0.442608
0.718597
1.22594
2.41113
4.84851
)
;

boundaryField
{
    movingWall
    {
        type            zeroGradient;
    }
    fixedWalls
    {
        type            zeroGradient;
    }
    frontAndBack
    {
        type            empty;
    }
}


// ************************************************************************* //
