/*--------------------------------*- C++ -*----------------------------------*\
  =========                 |
  \\      /  F ield         | OpenFOAM: The Open Source CFD Toolbox
   \\    /   O peration     | Website:  https://openfoam.org
    \\  /    A nd           | Version:  8
     \\/     M anipulation  |
\*---------------------------------------------------------------------------*/
FoamFile
{
    version     2.0;
    format      ascii;
    class       surfaceScalarField;
    location    "0.1";
    object      phi;
}
// * * * * * * * * * * * * * * * * * * * * * * * * * * * * * * * * * * * * * //

dimensions      [0 3 -1 0 0 0 0];

internalField   nonuniform List<scalar> 
760
(
1.39781e-08
-1.3979e-08
-2.19958e-08
3.59744e-08
-1.12711e-07
9.07143e-08
-2.41897e-07
1.29186e-07
-3.90073e-07
1.48175e-07
-5.3884e-07
1.48767e-07
-6.72387e-07
1.33547e-07
-7.78051e-07
1.05664e-07
-8.46445e-07
6.83944e-08
-8.71509e-07
2.50629e-08
-8.5064e-07
-2.08683e-08
-7.84948e-07
-6.56928e-08
-6.79545e-07
-1.05404e-07
-5.43788e-07
-1.35757e-07
-3.91297e-07
-1.5249e-07
-2.39509e-07
-1.51789e-07
-1.08444e-07
-1.31065e-07
-1.83512e-08
-9.00929e-08
1.53939e-08
-3.37449e-08
1.53938e-08
-3.36505e-08
1.96731e-08
-1.77477e-07
1.798e-07
-4.27014e-07
3.40253e-07
-7.52038e-07
4.54211e-07
-1.11366e-06
5.09802e-07
-1.4725e-06
5.07602e-07
-1.79301e-06
4.54061e-07
-2.04582e-06
3.58475e-07
-2.20881e-06
2.31385e-07
-2.26775e-06
8.39992e-08
-2.2168e-06
-7.18218e-08
-2.05904e-06
-2.23451e-07
-1.80694e-06
-3.57499e-07
-1.48253e-06
-4.60173e-07
-1.11685e-06
-5.18164e-07
-7.48358e-07
-5.20282e-07
-4.19398e-07
-4.60025e-07
-1.70388e-07
-3.39103e-07
-3.04458e-08
-1.73688e-07
-1.50524e-08
-9.0669e-08
1.10342e-07
-3.51132e-07
4.40263e-07
-7.52092e-07
7.41212e-07
-1.24778e-06
9.49903e-07
-1.78496e-06
1.04698e-06
-2.31038e-06
1.03302e-06
-2.77582e-06
9.19506e-07
-3.14114e-06
7.23796e-07
-3.37598e-06
4.66217e-07
-3.46078e-06
1.68798e-07
-3.38758e-06
-1.45019e-07
-3.16069e-06
-4.50336e-07
-2.79724e-06
-7.20958e-07
-2.32722e-06
-9.30183e-07
-1.79279e-06
-1.0526e-06
-1.24585e-06
-1.06722e-06
-7.43693e-07
-9.62179e-07
-3.4212e-07
-7.40676e-07
-8.61476e-08
-4.29661e-07
-1.012e-07
-1.42878e-07
2.53221e-07
-5.17234e-07
8.14618e-07
-1.06484e-06
1.28881e-06
-1.7204e-06
1.60547e-06
-2.41617e-06
1.74274e-06
-3.08745e-06
1.70431e-06
-3.6769e-06
1.50895e-06
-4.13719e-06
1.18409e-06
-4.4327e-06
7.61725e-07
-4.54044e-06
2.76537e-07
-4.45086e-06
-2.346e-07
-4.1686e-06
-7.32598e-07
-3.71318e-06
-1.17637e-06
-3.11934e-06
-1.52402e-06
-2.43648e-06
-1.73546e-06
-1.72653e-06
-1.77717e-06
-1.05976e-06
-1.62895e-06
-5.08176e-07
-1.29226e-06
-1.37441e-07
-8.00396e-07
-2.3864e-07
-1.90805e-07
4.44027e-07
-6.7533e-07
1.29914e-06
-1.36622e-06
1.9797e-06
-2.17637e-06
2.41561e-06
-3.02249e-06
2.58887e-06
-3.82915e-06
2.51097e-06
-4.53169e-06
2.21149e-06
-5.07793e-06
1.73033e-06
-5.42898e-06
1.11278e-06
-5.55969e-06
4.07248e-07
-5.45913e-06
-3.35163e-07
-5.13134e-06
-1.06039e-06
-4.59632e-06
-1.71139e-06
-3.89102e-06
-2.22932e-06
-3.06957e-06
-2.55691e-06
-2.20229e-06
-2.64446e-06
-1.37237e-06
-2.45887e-06
-6.70159e-07
-1.99446e-06
-1.8545e-07
-1.2851e-06
-4.24091e-07
-2.36997e-07
6.81023e-07
-8.30298e-07
1.89244e-06
-1.6633e-06
2.8127e-06
-2.62548e-06
3.3778e-06
-3.61715e-06
3.58053e-06
-4.55249e-06
3.44631e-06
-5.36098e-06
3.01998e-06
-5.98744e-06
2.35679e-06
-6.39144e-06
1.51678e-06
-6.54672e-06
5.62529e-07
-6.44107e-06
-4.40815e-07
-6.07695e-06
-1.42451e-06
-5.47298e-06
-2.31536e-06
-4.66582e-06
-3.03648e-06
-3.71211e-06
-3.51063e-06
-2.68913e-06
-3.66743e-06
-1.69338e-06
-3.45463e-06
-8.3579e-07
-2.85205e-06
-2.33684e-07
-1.88721e-06
-6.57775e-07
-2.84001e-07
9.65024e-07
-9.87757e-07
2.5962e-06
-1.9636e-06
3.78854e-06
-3.07584e-06
4.49004e-06
-4.20779e-06
4.71248e-06
-5.26408e-06
4.50261e-06
-6.17016e-06
3.92606e-06
-6.87009e-06
3.05672e-06
-7.32395e-06
1.97063e-06
-7.50565e-06
7.44231e-07
-7.4019e-06
-5.44564e-07
-7.01258e-06
-1.81382e-06
-6.35273e-06
-2.97522e-06
-5.45587e-06
-3.93334e-06
-4.37807e-06
-4.58842e-06
-3.20148e-06
-4.84401e-06
-2.03556e-06
-4.62056e-06
-1.01398e-06
-3.87363e-06
-2.85857e-07
-2.61533e-06
-9.43632e-07
-3.34104e-07
1.29913e-06
-1.15281e-06
3.4149e-06
-2.27303e-06
4.90876e-06
-3.53137e-06
5.74839e-06
-4.79396e-06
5.97507e-06
-5.95774e-06
5.66638e-06
-6.94708e-06
4.91541e-06
-7.7086e-06
3.81824e-06
-8.20571e-06
2.46775e-06
-8.41442e-06
9.5294e-07
-8.3209e-06
-6.38087e-07
-7.92143e-06
-2.21329e-06
-7.22493e-06
-3.67172e-06
-6.25791e-06
-4.90037e-06
-5.07142e-06
-5.77491e-06
-3.74854e-06
-6.1669e-06
-2.40979e-06
-5.95931e-06
-1.21326e-06
-5.07016e-06
-3.45574e-07
-3.48301e-06
-1.28921e-06
-3.89521e-07
1.68865e-06
-1.32998e-06
4.35536e-06
-2.59516e-06
6.17395e-06
-3.99035e-06
7.14357e-06
-5.36506e-06
7.34978e-06
-6.61197e-06
6.91329e-06
-7.65924e-06
5.96268e-06
-8.4609e-06
4.6199e-06
-8.98787e-06
2.99472e-06
-9.22102e-06
1.18609e-06
-9.14713e-06
-7.11975e-07
-8.75808e-06
-2.60234e-06
-8.05367e-06
-4.37612e-06
-7.04839e-06
-5.90565e-06
-5.78176e-06
-7.04154e-06
-4.33107e-06
-7.61759e-06
-2.82334e-06
-7.46703e-06
-1.44133e-06
-6.45218e-06
-4.16435e-07
-4.5079e-06
-1.70564e-06
-4.53007e-07
2.14165e-06
-1.52406e-06
5.42641e-06
-2.93146e-06
7.58134e-06
-4.44437e-06
8.65648e-06
-5.8979e-06
8.80331e-06
-7.18656e-06
8.20195e-06
-8.24968e-06
7.02579e-06
-9.05568e-06
5.4259e-06
-9.5886e-06
3.52764e-06
-9.83812e-06
1.43561e-06
-9.79352e-06
-7.56577e-07
-9.44187e-06
-2.95399e-06
-8.77082e-06
-5.04717e-06
-7.77674e-06
-6.89973e-06
-6.47867e-06
-8.33961e-06
-4.93769e-06
-9.15858e-06
-3.27832e-06
-9.12641e-06
-1.70515e-06
-8.02534e-06
-5.02534e-07
-5.71051e-06
-2.20818e-06
-5.28974e-07
2.67063e-06
-1.74163e-06
6.63907e-06
-3.28149e-06
9.1212e-06
-4.87656e-06
1.02516e-05
-6.35304e-06
1.02798e-05
-7.61752e-06
9.46643e-06
-8.63127e-06
8.03954e-06
-9.38638e-06
6.18102e-06
-9.88709e-06
4.02835e-06
-1.01367e-05
1.68522e-06
-1.01298e-05
-7.63524e-07
-9.84894e-06
-3.2348e-06
-9.26719e-06
-5.62892e-06
-8.35627e-06
-7.81065e-06
-7.1037e-06
-9.59218e-06
-5.53924e-06
-1.0723e-05
-3.7693e-06
-1.08963e-05
-2.01122e-06
-9.78342e-06
-6.09343e-07
-7.1124e-06
-2.81752e-06
-6.25357e-07
3.29599e-06
-1.99282e-06
8.00653e-06
-3.64215e-06
1.07705e-05
-5.25725e-06
1.18667e-05
-6.66771e-06
1.16903e-05
-7.80877e-06
1.06075e-05
-8.67852e-06
8.9093e-06
-9.3039e-06
6.8064e-06
-9.71696e-06
4.4414e-06
-9.93975e-06
1.90801e-06
-9.97537e-06
-7.27901e-07
-9.80374e-06
-3.40643e-06
-9.38213e-06
-6.05053e-06
-8.65236e-06
-8.54042e-06
-7.5585e-06
-1.0686e-05
-6.07942e-06
-1.22021e-05
-4.27859e-06
-1.26972e-05
-2.36547e-06
-1.16965e-05
-7.45191e-07
-8.73268e-06
-3.56271e-06
-7.56649e-07
4.05263e-06
-2.2927e-06
9.54258e-06
-4.00293e-06
1.24808e-05
-5.53328e-06
1.3397e-05
-6.74191e-06
1.28989e-05
-7.61819e-06
1.14838e-05
-8.21572e-06
9.50682e-06
-8.60763e-06
7.1983e-06
-8.86005e-06
4.69383e-06
-9.0175e-06
2.06546e-06
-9.0947e-06
-6.507e-07
-9.07185e-06
-3.42928e-06
-8.89265e-06
-6.22973e-06
-8.46753e-06
-8.96554e-06
-7.68763e-06
-1.14659e-05
-6.45888e-06
-1.34309e-05
-4.7662e-06
-1.43899e-05
-2.77132e-06
-1.36914e-05
-9.23612e-07
-1.05804e-05
-4.48632e-06
-9.48348e-07
5.00098e-06
-2.65877e-06
1.1253e-05
-4.33077e-06
1.41528e-05
-5.60367e-06
1.46699e-05
-6.41172e-06
1.37069e-05
-6.83422e-06
1.19063e-05
-6.99986e-06
9.67247e-06
-7.03543e-06
7.23387e-06
-7.04226e-06
4.70065e-06
-7.08687e-06
2.11008e-06
-7.19687e-06
-5.40707e-07
-7.35701e-06
-3.26914e-06
-7.50433e-06
-6.08241e-06
-7.52406e-06
-8.94581e-06
-7.25347e-06
-1.17365e-05
-6.50753e-06
-1.41768e-05
-5.14839e-06
-1.5749e-05
-3.22204e-06
-1.56178e-05
-1.16627e-06
-1.26361e-05
-5.6526e-06
-1.24059e-06
6.24158e-06
-3.09416e-06
1.31066e-05
-4.52891e-06
1.55875e-05
-5.26751e-06
1.54085e-05
-5.40047e-06
1.38399e-05
-5.13874e-06
1.16445e-05
-4.69799e-06
9.23172e-06
-4.25429e-06
6.79017e-06
-3.93444e-06
4.3808e-06
-3.81883e-06
1.99446e-06
-3.94514e-06
-4.14402e-07
-4.3074e-06
-2.90688e-06
-4.84851e-06
-5.5413e-06
-5.44673e-06
-8.34759e-06
-5.90185e-06
-1.12814e-05
-5.93723e-06
-1.41414e-05
-5.25161e-06
-1.64346e-05
-3.6753e-06
-1.71941e-05
-1.50255e-06
-1.48089e-05
-7.15515e-06
-1.67673e-06
7.91831e-06
-3.52335e-06
1.49532e-05
-4.33526e-06
1.63994e-05
-4.12067e-06
1.51939e-05
-3.2375e-06
1.29567e-05
-2.0556e-06
1.04626e-05
-8.63151e-07
8.03927e-06
1.4239e-07
5.78463e-06
8.35335e-07
3.68786e-06
1.14027e-06
1.68953e-06
1.01804e-06
-2.92177e-07
4.62049e-07
-2.35088e-06
-4.93609e-07
-4.58564e-06
-1.75225e-06
-7.08895e-06
-3.11933e-06
-9.91432e-06
-4.26435e-06
-1.29964e-05
-4.71647e-06
-1.59825e-05
-3.97735e-06
-1.79332e-05
-1.94777e-06
-1.68385e-05
-9.10292e-06
-2.2328e-06
1.01511e-05
-3.59804e-06
1.63184e-05
-3.09406e-06
1.58954e-05
-1.37086e-06
1.34707e-05
8.58124e-07
1.07277e-05
3.10399e-06
8.21678e-06
5.07603e-06
6.06722e-06
6.61752e-06
4.24315e-06
7.64842e-06
2.65696e-06
8.12631e-06
1.21164e-06
8.02449e-06
-1.90353e-07
7.32406e-06
-1.65046e-06
6.01952e-06
-3.28111e-06
4.14207e-06
-5.2115e-06
1.80898e-06
-7.58124e-06
-6.94253e-07
-1.04932e-05
-2.81258e-06
-1.38642e-05
-3.67218e-06
-1.70736e-05
-2.41442e-06
-1.80962e-05
-1.15173e-05
-2.57483e-06
1.27259e-05
-2.18811e-06
1.59317e-05
7.07102e-07
1.30002e-05
4.44999e-06
9.72782e-06
8.10362e-06
7.07411e-06
1.12614e-05
5.05903e-06
1.3779e-05
3.54957e-06
1.56298e-05
2.39233e-06
1.68277e-05
1.45907e-06
1.73883e-05
6.511e-07
1.73103e-05
-1.12374e-07
1.65681e-05
-9.08233e-07
1.51111e-05
-1.82416e-06
1.2876e-05
-2.97634e-06
9.82412e-06
-4.52939e-06
6.03481e-06
-6.70387e-06
1.89525e-06
-9.72461e-06
-1.5681e-06
-1.36102e-05
-2.46077e-06
-1.72036e-05
-1.39781e-05
-7.84966e-07
1.35109e-05
4.07927e-06
1.10675e-05
1.02923e-05
6.78723e-06
1.57826e-05
4.2375e-06
2.01398e-05
2.71688e-06
2.34322e-05
1.76667e-06
2.58277e-05
1.15408e-06
2.74824e-05
7.37597e-07
2.85108e-05
4.30695e-07
2.89813e-05
1.80607e-07
2.89175e-05
-4.86088e-08
2.82967e-05
-2.87442e-07
2.70443e-05
-5.71778e-07
2.50235e-05
-9.55514e-07
2.2027e-05
-1.53284e-06
1.77978e-05
-2.47473e-06
1.21614e-05
-4.08822e-06
5.47246e-06
-6.92126e-06
-1.30567e-07
-1.16005e-05
-1.41087e-05
1.35109e-05
2.45784e-05
3.13656e-05
3.56031e-05
3.832e-05
4.00866e-05
4.12407e-05
4.19783e-05
4.2409e-05
4.25896e-05
4.2541e-05
4.22536e-05
4.16818e-05
4.07263e-05
3.91934e-05
3.67187e-05
3.26305e-05
2.57092e-05
1.41087e-05
)
;

boundaryField
{
    movingWall
    {
        type            calculated;
        value           uniform 0;
    }
    fixedWalls
    {
        type            calculated;
        value           uniform 0;
    }
    frontAndBack
    {
        type            empty;
        value           nonuniform List<scalar> 0();
    }
}


// ************************************************************************* //
