# Region type : patch outlet
# Faces  :    200
# Area   :    4.200000e+01
# Time        	sum(rhoPhi)
0             	4.200000e+01
0.119048      	4.200000e+01
0.177515      	4.195763e+01
0.247675      	4.171895e+01
0.331747      	4.162775e+01
0.43142       	4.156854e+01
0.551027      	4.151484e+01
0.684111      	4.145767e+01
0.842008      	4.139477e+01
0.96746       	4.132396e+01
1.11553       	4.125492e+01
1.25883       	4.118513e+01
1.42376       	4.111213e+01
1.55176       	4.103442e+01
1.70262       	4.096031e+01
1.84091       	4.088666e+01
2.0009        	4.081173e+01
2.12991       	4.073367e+01
2.28126       	4.065836e+01
2.43564       	4.058311e+01
2.61155       	4.050325e+01
2.7171        	4.041777e+01
2.84267       	4.034384e+01
2.98301       	4.027816e+01
3.14619       	4.020652e+01
3.27312       	4.012701e+01
3.4226        	4.005250e+01
3.55684       	3.997713e+01
3.71399       	3.990421e+01
3.82828       	3.982614e+01
3.96244       	3.975613e+01
4.1097        	3.968696e+01
4.28295       	3.961552e+01
4.38152       	3.953302e+01
4.49857       	3.946544e+01
4.63275       	3.940295e+01
4.7861        	3.933910e+01
4.9441        	3.926443e+01
5.12466       	3.918809e+01
5.22623       	3.910340e+01
5.34558       	3.903297e+01
5.47856       	3.897132e+01
5.63447       	3.890668e+01
5.75574       	3.883544e+01
5.89721       	3.876578e+01
6.01444       	3.869923e+01
6.15187       	3.863333e+01
6.28456       	3.856931e+01
6.43937       	3.850161e+01
6.54111       	3.843198e+01
6.66038       	3.836742e+01
6.79396       	3.831011e+01
6.94663       	3.824697e+01
7.06877       	3.817922e+01
7.20835       	3.811226e+01
7.33524       	3.804825e+01
7.47549       	3.798421e+01
7.59571       	3.792011e+01
7.72928       	3.785885e+01
7.84879       	3.779791e+01
7.98324       	3.774016e+01
8.11769       	3.768197e+01
8.26248       	3.762554e+01
8.37832       	3.756886e+01
8.50306       	3.752118e+01
8.63915       	3.747988e+01
8.79035       	3.744716e+01
8.90032       	3.742732e+01
9.02251       	3.743579e+01
9.14469       	3.746866e+01
9.26688       	3.754776e+01
9.38907       	3.769182e+01
9.51125       	3.793016e+01
9.63344       	3.830205e+01
9.75563       	3.887653e+01
9.87781       	3.972989e+01
10            	4.098596e+01
10.1351       	4.281565e+01
10.2721       	4.589848e+01
10.3953       	5.410303e+01
10.5325       	1.109915e+02
10.6781       	4.592905e+02
10.8389       	1.888498e+03
10.9548       	4.451662e+03
11.0879       	8.743561e+03
11.2364       	1.301860e+04
11.4017       	1.572424e+04
11.5029       	1.709889e+04
11.6209       	1.721497e+04
11.7561       	1.666817e+04
11.9087       	1.579542e+04
12.0482       	1.498854e+04
12.2041       	1.406414e+04
12.3028       	1.344135e+04
12.4177       	1.292330e+04
12.5484       	1.265972e+04
12.6945       	1.270019e+04
12.825        	1.280588e+04
12.9714       	1.332250e+04
13.0867       	1.363564e+04
13.2196       	1.432656e+04
13.3609       	1.494210e+04
13.5189       	1.539225e+04
13.6326       	1.550000e+04
13.76         	1.560986e+04
13.9018       	1.547652e+04
14.0582       	1.530732e+04
14.1572       	1.471789e+04
14.2718       	1.492528e+04
14.4019       	1.532449e+04
14.5493       	1.574088e+04
14.7007       	1.607164e+04
14.8663       	1.653673e+04
14.958        	1.662142e+04
15.0652       	1.737983e+04
15.1856       	1.814007e+04
15.3193       	1.875821e+04
15.4612       	1.919629e+04
15.6125       	1.946604e+04
15.7195       	1.951454e+04
15.8384       	1.969460e+04
15.9684       	1.991516e+04
16.1124       	2.020148e+04
16.2339       	2.035340e+04
16.3594       	2.060741e+04
16.4995       	2.084588e+04
16.6517       	2.101655e+04
16.7671       	2.105525e+04
16.8964       	2.107600e+04
17.0375       	2.082745e+04
17.1722       	2.038196e+04
17.2809       	1.987153e+04
17.3991       	1.928965e+04
17.5292       	1.877158e+04
17.6665       	1.842575e+04
17.7831       	1.821076e+04
17.9135       	1.835055e+04
18.0439       	1.856366e+04
18.1837       	1.884978e+04
18.3047       	1.895642e+04
18.4352       	1.916601e+04
18.5774       	1.936012e+04
18.7355       	1.958400e+04
18.8409       	1.948162e+04
18.9568       	1.977818e+04
19.0872       	2.009460e+04
19.2176       	2.035196e+04
19.348        	2.057185e+04
19.4784       	2.070893e+04
19.6088       	2.076123e+04
19.7392       	2.075865e+04
19.8696       	2.077573e+04
20            	2.086385e+04
20.1429       	2.111590e+04
20.3018       	2.149352e+04
20.4312       	2.170609e+04
20.5761       	2.211734e+04
20.7189       	2.241264e+04
20.8639       	2.267714e+04
20.9811       	2.278179e+04
21.1137       	2.300983e+04
21.2618       	2.320811e+04
21.4236       	2.341203e+04
21.527        	2.330201e+04
21.648        	2.357020e+04
21.7849       	2.384731e+04
21.937        	2.415371e+04
22.0864       	2.441723e+04
22.214        	2.460572e+04
22.3338       	2.487484e+04
22.4757       	2.529129e+04
22.6126       	2.557700e+04
22.7665       	2.593489e+04
22.8777       	2.604026e+04
23.0027       	2.632770e+04
23.1426       	2.659026e+04
23.2985       	2.684283e+04
23.4066       	2.688499e+04
23.531        	2.710327e+04
23.6716       	2.730745e+04
23.8122       	2.745728e+04
23.9385       	2.755964e+04
24.0795       	2.771576e+04
24.214        	2.780322e+04
24.3624       	2.791509e+04
24.4935       	2.794617e+04
24.6384       	2.803539e+04
24.7576       	2.803170e+04
24.892        	2.810943e+04
25.023        	2.814158e+04
25.1693       	2.821281e+04
25.2932       	2.820276e+04
25.4316       	2.827897e+04
25.566        	2.831277e+04
25.7004       	2.835822e+04
25.8232       	2.838045e+04
25.9624       	2.845957e+04
26.1066       	2.850481e+04
26.2624       	2.855346e+04
26.3723       	2.850413e+04
26.4974       	2.855781e+04
26.6375       	2.858459e+04
26.7903       	2.859060e+04
26.905        	2.853831e+04
27.0339       	2.857619e+04
27.1752       	2.861747e+04
27.3321       	2.868649e+04
27.4347       	2.867014e+04
27.5513       	2.877318e+04
27.6802       	2.888712e+04
27.8252       	2.901898e+04
27.9611       	2.911336e+04
28.097        	2.922372e+04
28.209        	2.927356e+04
28.3369       	2.940094e+04
28.4755       	2.953640e+04
28.628        	2.968727e+04
28.7335       	2.970179e+04
28.8486       	2.981207e+04
28.9766       	2.993055e+04
29.1228       	3.006130e+04
29.2324       	3.008646e+04
29.3421       	3.016403e+04
29.4517       	3.024553e+04
29.5614       	3.032327e+04
29.671        	3.040014e+04
29.7807       	3.047654e+04
29.8903       	3.055454e+04
30            	3.063394e+04
30.1235       	3.074328e+04
30.2687       	3.088831e+04
30.3888       	3.094969e+04
30.5223       	3.109584e+04
30.6704       	3.125334e+04
30.8162       	3.137927e+04
30.9324       	3.143890e+04
31.0678       	3.160599e+04
31.2166       	3.175699e+04
31.3518       	3.185089e+04
31.4671       	3.192337e+04
31.5984       	3.208426e+04
31.7458       	3.222869e+04
31.9015       	3.234906e+04
32.004        	3.230397e+04
32.1234       	3.247533e+04
32.2569       	3.260661e+04
32.4058       	3.272446e+04
32.564        	3.282586e+04
32.6992       	3.285740e+04
32.8115       	3.289116e+04
32.9422       	3.302732e+04
33.0862       	3.311823e+04
33.247        	3.320290e+04
33.3525       	3.311634e+04
33.4734       	3.324715e+04
33.6123       	3.334546e+04
33.7644       	3.341198e+04
33.8777       	3.336590e+04
34.0053       	3.346342e+04
34.1447       	3.352860e+04
34.2841       	3.355926e+04
34.4032       	3.355363e+04
34.5397       	3.362511e+04
34.6914       	3.366647e+04
34.8388       	3.367011e+04
34.9442       	3.361877e+04
35.0645       	3.368012e+04
35.2016       	3.371451e+04
35.3564       	3.373152e+04
35.4854       	3.369630e+04
35.6265       	3.372506e+04
35.7551       	3.371623e+04
35.9015       	3.374583e+04
36.0257       	3.372332e+04
36.1539       	3.374269e+04
36.2821       	3.375129e+04
36.4251       	3.377202e+04
36.5484       	3.375462e+04
36.6864       	3.378233e+04
36.8245       	3.378560e+04
36.9688       	3.379639e+04
37.0951       	3.378410e+04
37.2335       	3.380825e+04
37.3718       	3.381367e+04
37.5264       	3.383778e+04
37.6388       	3.379964e+04
37.7631       	3.384940e+04
37.9029       	3.389069e+04
38.0527       	3.392195e+04
38.1744       	3.391139e+04
38.3048       	3.396596e+04
38.4461       	3.401290e+04
38.6015       	3.406333e+04
38.7014       	3.400329e+04
38.8096       	3.408585e+04
38.9286       	3.414794e+04
39.0625       	3.420280e+04
39.1965       	3.423087e+04
39.3304       	3.427092e+04
39.442        	3.427251e+04
39.5536       	3.433225e+04
39.6652       	3.438266e+04
39.7768       	3.442812e+04
39.8884       	3.447182e+04
40            	3.451532e+04
40.1266       	3.459077e+04
40.2718       	3.466341e+04
40.3904       	3.464247e+04
40.5221       	3.472728e+04
40.6679       	3.479931e+04
40.826        	3.485924e+04
40.9379       	3.479620e+04
41.0656       	3.489729e+04
41.2097       	3.496602e+04
41.3586       	3.499492e+04
41.4603       	3.491653e+04
41.5789       	3.500141e+04
41.7147       	3.505486e+04
41.8682       	3.508730e+04
41.9827       	3.501782e+04
42.112        	3.506640e+04
42.2554       	3.509101e+04
42.4168       	3.510463e+04
42.5251       	3.500568e+04
42.6476       	3.504862e+04
42.7864       	3.507055e+04
42.9399       	3.507553e+04
43.0556       	3.500414e+04
43.1866       	3.503732e+04
43.3202       	3.503764e+04
43.4687       	3.505405e+04
43.5967       	3.501805e+04
43.739        	3.504618e+04
43.8881       	3.505553e+04
44.0489       	3.507153e+04
44.1634       	3.500126e+04
44.2931       	3.505320e+04
44.4357       	3.508560e+04
44.5822       	3.509695e+04
44.6905       	3.504374e+04
44.814        	3.509939e+04
44.9542       	3.514145e+04
45.1071       	3.516522e+04
45.2134       	3.509896e+04
45.3362       	3.516102e+04
45.4733       	3.520091e+04
45.6242       	3.522831e+04
45.7425       	3.519063e+04
45.8755       	3.524143e+04
46.0228       	3.527285e+04
46.1819       	3.528989e+04
46.2851       	3.521797e+04
46.4012       	3.527574e+04
46.5345       	3.531375e+04
46.6852       	3.533206e+04
46.8178       	3.530364e+04
46.9504       	3.530885e+04
47.0677       	3.529249e+04
47.2009       	3.531998e+04
47.3282       	3.530751e+04
47.4688       	3.532011e+04
47.602        	3.530037e+04
47.7431       	3.530267e+04
47.8758       	3.528102e+04
48.0174       	3.528375e+04
48.1341       	3.524066e+04
48.2585       	3.525630e+04
48.3829       	3.525262e+04
48.5176       	3.526077e+04
48.6412       	3.523631e+04
48.777        	3.525085e+04
48.9129       	3.524216e+04
49.0488       	3.523637e+04
49.1677       	3.520948e+04
49.2866       	3.521449e+04
49.4055       	3.521458e+04
49.5244       	3.521159e+04
49.6433       	3.520668e+04
49.7622       	3.520066e+04
49.8811       	3.519431e+04
50            	3.518782e+04
50.1316       	3.519690e+04
50.2789       	3.520157e+04
50.4051       	3.515945e+04
50.5462       	3.517845e+04
50.6917       	3.517513e+04
50.8468       	3.517912e+04
50.9612       	3.511699e+04
51.0903       	3.515447e+04
51.2364       	3.517735e+04
51.3875       	3.517616e+04
51.4952       	3.511047e+04
51.6202       	3.515673e+04
51.7623       	3.518130e+04
51.9148       	3.518536e+04
52.0518       	3.515659e+04
52.1913       	3.516156e+04
52.3259       	3.515396e+04
52.4764       	3.517188e+04
52.6132       	3.514563e+04
52.7639       	3.516149e+04
52.877        	3.510520e+04
53.0042       	3.514014e+04
53.1441       	3.515524e+04
53.2965       	3.516005e+04
53.4101       	3.510229e+04
53.5419       	3.514045e+04
53.6887       	3.515325e+04
53.8259       	3.513165e+04
53.9361       	3.509706e+04
54.0624       	3.512923e+04
54.2038       	3.513914e+04
54.3605       	3.513719e+04
54.4689       	3.506287e+04
54.5946       	3.509617e+04
54.7369       	3.510291e+04
54.8872       	3.508917e+04
55.0151       	3.504501e+04
55.1575       	3.505485e+04
55.2884       	3.502499e+04
55.4356       	3.503119e+04
55.5557       	3.498201e+04
55.6904       	3.499634e+04
55.8101       	3.496480e+04
55.941        	3.497120e+04
56.086        	3.496767e+04
56.2426       	3.495323e+04
56.36         	3.488659e+04
56.49         	3.490119e+04
56.6304       	3.489578e+04
56.7708       	3.487436e+04
56.8821       	3.482505e+04
57.0069       	3.484179e+04
57.1494       	3.484659e+04
57.3078       	3.483954e+04
57.4113       	3.475446e+04
57.529        	3.478841e+04
57.659        	3.479989e+04
57.8053       	3.480639e+04
57.9621       	3.480102e+04
58.0895       	3.475568e+04
58.2019       	3.474373e+04
58.3303       	3.477004e+04
58.4694       	3.477333e+04
58.6225       	3.477446e+04
58.7373       	3.471643e+04
58.8636       	3.473887e+04
59.0056       	3.474812e+04
59.1477       	3.473137e+04
59.2542       	3.467813e+04
59.3785       	3.470703e+04
59.5028       	3.469562e+04
59.6271       	3.468460e+04
59.7514       	3.467303e+04
59.8757       	3.466051e+04
60            	3.464692e+04
60.1408       	3.464733e+04
60.2759       	3.461590e+04
60.4255       	3.460897e+04
60.5437       	3.454987e+04
60.6769       	3.455891e+04
60.8249       	3.454833e+04
60.9858       	3.452696e+04
61.0932       	3.443834e+04
61.2169       	3.446190e+04
61.3563       	3.445966e+04
61.5106       	3.444470e+04
61.6254       	3.437380e+04
61.7542       	3.438798e+04
61.8964       	3.438193e+04
62.0553       	3.436864e+04
62.1626       	3.428358e+04
62.2851       	3.430594e+04
62.4204       	3.430240e+04
62.569        	3.428830e+04
62.695        	3.423718e+04
62.8355       	3.423916e+04
62.9634       	3.420310e+04
63.107        	3.420341e+04
63.2238       	3.415222e+04
63.3542       	3.416152e+04
63.4772       	3.413743e+04
63.6131       	3.413950e+04
63.749        	3.412127e+04
63.9015       	3.412167e+04
64.0285       	3.407568e+04
64.1707       	3.408975e+04
64.2947       	3.405773e+04
64.4306       	3.407008e+04
64.5543       	3.404739e+04
64.694        	3.406264e+04
64.8234       	3.404009e+04
64.9672       	3.405201e+04
65.087        	3.401465e+04
65.2198       	3.403505e+04
65.3526       	3.402984e+04
65.4893       	3.403094e+04
65.6049       	3.400271e+04
65.7381       	3.403203e+04
65.8851       	3.404119e+04
66.032        	3.403194e+04
66.1338       	3.397254e+04
66.2509       	3.401467e+04
66.3848       	3.403579e+04
66.5355       	3.404353e+04
66.6549       	3.399677e+04
66.7836       	3.401643e+04
66.9073       	3.400838e+04
67.0479       	3.402444e+04
67.1762       	3.399968e+04
67.3174       	3.401016e+04
67.434        	3.397266e+04
67.5623       	3.399015e+04
67.6978       	3.398907e+04
67.8513       	3.399331e+04
67.9536       	3.391812e+04
68.0673       	3.394864e+04
68.1961       	3.396258e+04
68.3349       	3.395909e+04
68.463        	3.393438e+04
68.6027       	3.394285e+04
68.7191       	3.390786e+04
68.8472       	3.392659e+04
68.9753       	3.392114e+04
69.1034       	3.391756e+04
69.2155       	3.389723e+04
69.3275       	3.390451e+04
69.4396       	3.390762e+04
69.5517       	3.390888e+04
69.6638       	3.390962e+04
69.7758       	3.391048e+04
69.8879       	3.391169e+04
70            	3.391329e+04
70.1266       	3.393089e+04
70.2739       	3.394543e+04
70.4036       	3.391603e+04
70.549        	3.393601e+04
70.686        	3.392143e+04
