/*--------------------------------*- C++ -*----------------------------------*\
  =========                 |
  \\      /  F ield         | OpenFOAM: The Open Source CFD Toolbox
   \\    /   O peration     | Website:  https://openfoam.org
    \\  /    A nd           | Version:  8
     \\/     M anipulation  |
\*---------------------------------------------------------------------------*/
FoamFile
{
    version     2.0;
    format      ascii;
    class       volScalarField;
    location    "0.2";
    object      p;
}
// * * * * * * * * * * * * * * * * * * * * * * * * * * * * * * * * * * * * * //

dimensions      [0 2 -2 0 0 0 0];

internalField   nonuniform List<scalar> 
400
(
3.53319e-07
-0.00582629
-0.0129605
-0.018409
-0.0204238
-0.0182289
-0.0117645
-0.00147585
0.0118424
0.0271509
0.0432426
0.0588177
0.0725705
0.0832986
0.0900427
0.0922583
0.0900199
0.0842417
0.0768824
0.0710714
0.0057739
-0.000222434
-0.00580499
-0.00954072
-0.010595
-0.00842758
-0.00296461
0.0054788
0.016306
0.0287129
0.0417488
0.0543829
0.0655818
0.0744045
0.080115
0.0823117
0.0810754
0.0770559
0.0712783
0.0653249
0.0133235
0.00502628
-0.000999198
-0.00442437
-0.00527214
-0.00326178
0.00160511
0.00903034
0.0185041
0.0293504
0.0407653
0.0518684
0.0617664
0.0696339
0.074805
0.0768773
0.0758429
0.0720899
0.0658129
0.0575469
0.0201237
0.00868597
0.00121993
-0.00267167
-0.00372308
-0.00188475
0.00273278
0.00978652
0.0187823
0.0290965
0.0399928
0.0506542
0.0602327
0.0679157
0.0730035
0.0750031
0.0737695
0.0694626
0.0616134
0.0501183
0.0244839
0.00976188
0.000582829
-0.00399091
-0.00530389
-0.00350729
0.00117601
0.00833662
0.0174644
0.0279516
0.0390872
0.0500718
0.0600505
0.0681668
0.0736286
0.0758013
0.0743746
0.0692983
0.0595383
0.0445562
0.0251598
0.00713917
-0.00380851
-0.00906077
-0.0105133
-0.0084993
-0.00335466
0.00443263
0.0143172
0.0256832
0.037818
0.0499072
0.0610518
0.0703068
0.0767387
0.0795221
0.078146
0.0723434
0.0605534
0.0419108
0.0210783
-0.000270874
-0.0129389
-0.0187111
-0.0200293
-0.0174115
-0.0113143
-0.00231444
0.00899656
0.0219828
0.0359162
0.0499507
0.0631182
0.074351
0.0825277
0.0865761
0.0857288
0.0794576
0.0656348
0.0430923
0.0111332
-0.0136225
-0.027876
-0.033853
-0.0346003
-0.0308524
-0.0232061
-0.0123371
0.00111389
0.0164934
0.0330621
0.0499427
0.0660919
0.0802978
0.0912082
0.0974377
0.0978789
0.0916464
0.0759098
0.0491353
-0.00596906
-0.0342649
-0.0498663
-0.0555433
-0.0550832
-0.0495061
-0.0395834
-0.0261019
-0.00974475
0.00883579
0.0289137
0.0496055
0.0698086
0.0881645
0.103057
0.11271
0.115559
0.110201
0.0928459
0.0614268
-0.0318499
-0.0638678
-0.0804079
-0.0849973
-0.0824092
-0.0740662
-0.0609674
-0.0440219
-0.0239359
-0.00132094
0.0231613
0.0486758
0.0741091
0.0979842
0.118406
0.133135
0.139997
0.136826
0.11845
0.0819446
-0.0686505
-0.104588
-0.12133
-0.123576
-0.117501
-0.105111
-0.0877017
-0.0663079
-0.0416186
-0.0141369
0.0156238
0.0469704
0.0788713
0.109807
0.137635
0.159595
0.172735
0.173785
0.155526
0.113576
-0.119377
-0.159335
-0.174895
-0.172739
-0.16113
-0.142911
-0.11974
-0.0927573
-0.062557
-0.029427
0.00639319
0.0444922
0.0840719
0.123717
0.161148
0.193095
0.215675
0.224082
0.208053
0.160632
-0.188596
-0.232215
-0.243916
-0.233927
-0.213674
-0.187135
-0.156352
-0.12248
-0.0858765
-0.0464507
-0.00399363
0.0415581
0.0898592
0.139844
0.18933
0.234697
0.27108
0.291667
0.281742
0.229771
-0.283938
-0.329275
-0.331807
-0.308258
-0.274688
-0.23642
-0.195745
-0.15359
-0.109819
-0.0637239
-0.0144173
0.0388824
0.0965707
0.15829
0.222384
0.285295
0.341401
0.381575
0.38491
0.331824
-0.419281
-0.459641
-0.442326
-0.395771
-0.34211
-0.287722
-0.234598
-0.182911
-0.13159
-0.0789649
-0.0231945
0.0374931
0.104568
0.17885
0.259869
0.344975
0.428618
0.499698
0.529669
0.485378
-0.620497
-0.636716
-0.578655
-0.494175
-0.411225
-0.335644
-0.267765
-0.205961
-0.147519
-0.0893649
-0.0284083
0.0383644
0.11382
0.200482
0.299981
0.412028
0.533029
0.651771
0.732764
0.722381
-0.935895
-0.878492
-0.741724
-0.597935
-0.474382
-0.372649
-0.288857
-0.21775
-0.153939
-0.0924481
-0.0287015
0.0417102
0.123276
0.220727
0.338931
0.482156
0.651994
0.841336
1.01526
1.09749
-1.4764
-1.20661
-0.92049
-0.691379
-0.517298
-0.387537
-0.290053
-0.213328
-0.148112
-0.0872021
-0.0245637
0.0454708
0.128949
0.233079
0.367108
0.542679
0.77129
1.05931
1.40328
1.73013
-2.53963
-1.63053
-1.04443
-0.710954
-0.495748
-0.352091
-0.254527
-0.183577
-0.12616
-0.0735839
-0.0192562
0.0428001
0.119225
0.218793
0.354819
0.547987
0.826392
1.23658
1.91167
2.92418
-4.36665
-2.04462
-0.973537
-0.56318
-0.357849
-0.24015
-0.170121
-0.123781
-0.0874758
-0.0535008
-0.0166419
0.0276751
0.0846224
0.161743
0.272422
0.442107
0.718223
1.22571
2.41103
4.84852
)
;

boundaryField
{
    movingWall
    {
        type            zeroGradient;
    }
    fixedWalls
    {
        type            zeroGradient;
    }
    frontAndBack
    {
        type            empty;
    }
}


// ************************************************************************* //
