/*--------------------------------*- C++ -*----------------------------------*\
  =========                 |
  \\      /  F ield         | OpenFOAM: The Open Source CFD Toolbox
   \\    /   O peration     | Website:  https://openfoam.org
    \\  /    A nd           | Version:  8
     \\/     M anipulation  |
\*---------------------------------------------------------------------------*/
FoamFile
{
    version     2.0;
    format      ascii;
    class       surfaceScalarField;
    location    "0.2";
    object      phi;
}
// * * * * * * * * * * * * * * * * * * * * * * * * * * * * * * * * * * * * * //

dimensions      [0 3 -1 0 0 0 0];

internalField   nonuniform List<scalar> 
760
(
1.4238e-08
-1.4241e-08
-2.22039e-08
3.64422e-08
-1.14235e-07
9.20305e-08
-2.45413e-07
1.31178e-07
-3.95962e-07
1.50549e-07
-5.47174e-07
1.51211e-07
-6.82947e-07
1.35774e-07
-7.90378e-07
1.07432e-07
-8.59897e-07
6.95182e-08
-8.85322e-07
2.54252e-08
-8.6401e-07
-2.13117e-08
-7.97106e-07
-6.69039e-08
-6.89845e-07
-1.07262e-07
-5.51786e-07
-1.3806e-07
-3.96815e-07
-1.54971e-07
-2.42676e-07
-1.54138e-07
-1.09707e-07
-1.3297e-07
-1.84188e-08
-9.12877e-08
1.56798e-08
-3.40989e-08
1.5679e-08
-3.41959e-08
1.99544e-08
-1.80299e-07
1.82545e-07
-4.33817e-07
3.45548e-07
-7.64133e-07
4.61495e-07
-1.13177e-06
5.18185e-07
-1.49666e-06
5.16102e-07
-1.82263e-06
4.61741e-07
-2.07972e-06
3.64531e-07
-2.2454e-06
2.35196e-07
-2.30515e-06
8.51713e-08
-2.25303e-06
-7.34254e-08
-2.09225e-06
-2.27687e-07
-1.83557e-06
-3.63945e-07
-1.50548e-06
-4.68148e-07
-1.13366e-06
-5.26787e-07
-7.59246e-07
-5.28556e-07
-4.2525e-07
-4.66966e-07
-1.72634e-07
-3.43904e-07
-3.07938e-08
-1.7594e-07
-1.51148e-08
-9.21826e-08
1.12138e-07
-3.56837e-07
4.47198e-07
-7.64228e-07
7.52939e-07
-1.26795e-06
9.65216e-07
-1.81394e-06
1.06417e-06
-2.34807e-06
1.05023e-06
-2.82127e-06
9.3494e-07
-3.19263e-06
7.35894e-07
-3.43121e-06
4.73773e-07
-3.51708e-06
1.71049e-07
-3.44219e-06
-1.48324e-07
-3.21097e-06
-4.589e-07
-2.84098e-06
-7.3394e-07
-2.36287e-06
-9.46254e-07
-1.8196e-06
-1.07006e-06
-1.26399e-06
-1.08417e-06
-7.54227e-07
-9.76734e-07
-3.46833e-07
-7.51299e-07
-8.73007e-08
-4.35472e-07
-1.02415e-07
-1.4514e-07
2.57277e-07
-5.25224e-07
8.2728e-07
-1.08116e-06
1.30888e-06
-1.74677e-06
1.63082e-06
-2.4533e-06
1.77071e-06
-3.13508e-06
1.73201e-06
-3.73376e-06
1.53362e-06
-4.2012e-06
1.20333e-06
-4.5011e-06
7.73678e-07
-4.61008e-06
2.80029e-07
-4.51846e-06
-2.39942e-07
-4.23107e-06
-7.46294e-07
-3.7679e-06
-1.19711e-06
-3.16441e-06
-1.54974e-06
-2.47092e-06
-1.76355e-06
-1.75039e-06
-1.8047e-06
-1.07409e-06
-1.65304e-06
-5.14931e-07
-1.31046e-06
-1.39256e-07
-8.11148e-07
-2.41671e-07
-1.93521e-07
4.50799e-07
-6.8471e-07
1.31847e-06
-1.38506e-06
2.00923e-06
-2.20637e-06
2.45213e-06
-3.06427e-06
2.62862e-06
-3.88229e-06
2.55002e-06
-4.59475e-06
2.24609e-06
-5.14864e-06
1.75722e-06
-5.50439e-06
1.12943e-06
-5.63643e-06
4.12075e-07
-5.53372e-06
-3.42652e-07
-5.20048e-06
-1.07954e-06
-4.6572e-06
-1.74039e-06
-3.94155e-06
-2.2654e-06
-3.1086e-06
-2.5965e-06
-2.2297e-06
-2.68359e-06
-1.38913e-06
-2.4936e-06
-6.78245e-07
-2.02135e-06
-1.87693e-07
-1.3017e-06
-4.29363e-07
-2.39846e-07
6.90645e-07
-8.40042e-07
1.91867e-06
-1.6827e-06
2.85188e-06
-2.65615e-06
3.42559e-06
-3.65961e-06
3.63208e-06
-4.60624e-06
3.49665e-06
-5.42458e-06
3.06442e-06
-6.0586e-06
2.39125e-06
-6.46728e-06
1.5381e-06
-6.62394e-06
5.68742e-07
-6.51627e-06
-4.50326e-07
-6.14689e-06
-1.44892e-06
-5.53484e-06
-2.35244e-06
-4.71749e-06
-3.08275e-06
-3.75232e-06
-3.56166e-06
-2.71765e-06
-3.71826e-06
-1.71101e-06
-3.50024e-06
-8.44393e-07
-2.88796e-06
-2.36099e-07
-1.90999e-06
-6.65462e-07
-2.86657e-07
9.77303e-07
-9.96802e-07
2.62881e-06
-1.98154e-06
3.83662e-06
-3.10412e-06
4.54816e-06
-4.24684e-06
4.7748e-06
-5.31343e-06
4.56325e-06
-6.2285e-06
3.97949e-06
-6.93539e-06
3.09813e-06
-7.3936e-06
1.99631e-06
-7.57671e-06
7.51851e-07
-7.4713e-06
-5.55738e-07
-7.07738e-06
-1.84284e-06
-6.41033e-06
-3.01949e-06
-5.50427e-06
-3.98881e-06
-4.41602e-06
-4.64992e-06
-3.22861e-06
-4.90567e-06
-2.05246e-06
-4.67639e-06
-1.02229e-06
-3.91814e-06
-2.88205e-07
-2.64407e-06
-9.53668e-07
-3.3626e-07
1.31356e-06
-1.16014e-06
3.45269e-06
-2.28758e-06
4.96406e-06
-3.55433e-06
5.81491e-06
-4.82573e-06
6.04619e-06
-5.99796e-06
5.73548e-06
-6.99475e-06
4.97628e-06
-7.7621e-06
3.86548e-06
-8.26298e-06
2.49719e-06
-8.47308e-06
9.61956e-07
-8.37847e-06
-6.50352e-07
-7.9755e-06
-2.24581e-06
-7.27332e-06
-3.72166e-06
-6.29889e-06
-4.96325e-06
-5.10382e-06
-5.84498e-06
-3.7719e-06
-6.23759e-06
-2.42448e-06
-6.02381e-06
-1.22054e-06
-5.12209e-06
-3.47644e-07
-3.51697e-06
-1.30131e-06
-3.90913e-07
1.70448e-06
-1.33474e-06
4.39653e-06
-2.6047e-06
6.23402e-06
-4.00553e-06
7.21574e-06
-5.38625e-06
7.42691e-06
-6.63904e-06
6.98827e-06
-7.69161e-06
6.02884e-06
-8.49755e-06
4.67142e-06
-9.02744e-06
3.02708e-06
-9.26192e-06
1.19644e-06
-9.18767e-06
-7.24607e-07
-8.79655e-06
-2.63692e-06
-8.08853e-06
-4.42969e-06
-7.0783e-06
-5.97348e-06
-5.80574e-06
-7.11754e-06
-4.34861e-06
-7.69472e-06
-2.83453e-06
-7.5379e-06
-1.44695e-06
-6.50967e-06
-4.18054e-07
-4.54586e-06
-1.71937e-06
-4.53441e-07
2.15792e-06
-1.52564e-06
5.46873e-06
-2.9348e-06
7.64318e-06
-4.44999e-06
8.73092e-06
-5.90615e-06
8.88307e-06
-7.19759e-06
8.27971e-06
-8.26339e-06
7.09464e-06
-9.07176e-06
5.47979e-06
-9.60654e-06
3.56186e-06
-9.85724e-06
1.44715e-06
-9.81307e-06
-7.68782e-07
-9.46103e-06
-2.98896e-06
-8.78878e-06
-5.10193e-06
-7.79271e-06
-6.96955e-06
-6.49196e-06
-8.41829e-06
-4.94778e-06
-9.2389e-06
-3.28498e-06
-9.20069e-06
-1.70861e-06
-8.08605e-06
-5.03565e-07
-5.7509e-06
-2.22293e-06
-5.28357e-07
2.68627e-06
-1.73972e-06
6.68009e-06
-3.27809e-06
9.18155e-06
-4.8718e-06
1.03246e-05
-6.34723e-06
1.03585e-05
-7.61108e-06
9.54356e-06
-8.62464e-06
8.1082e-06
-9.37999e-06
6.23514e-06
-9.88129e-06
4.06317e-06
-1.01318e-05
1.69768e-06
-1.01261e-05
-7.74555e-07
-9.84657e-06
-3.26844e-06
-9.26618e-06
-5.68232e-06
-8.35648e-06
-7.87925e-06
-7.10479e-06
-9.66997e-06
-5.54076e-06
-1.08029e-05
-3.77073e-06
-1.09707e-05
-2.01218e-06
-9.8446e-06
-6.09689e-07
-7.15339e-06
-2.83262e-06
-6.23718e-07
3.30999e-06
-1.98755e-06
8.04392e-06
-3.63222e-06
1.08262e-05
-5.24239e-06
1.19348e-05
-6.64817e-06
1.17643e-05
-7.78521e-06
1.06806e-05
-8.65185e-06
8.97484e-06
-9.27521e-06
6.8585e-06
-9.68747e-06
4.47543e-06
-9.91075e-06
1.92096e-06
-9.94813e-06
-7.37179e-07
-9.7794e-06
-3.43717e-06
-9.3616e-06
-6.10013e-06
-8.6362e-06
-8.60465e-06
-7.54683e-06
-1.07593e-05
-6.07189e-06
-1.22779e-05
-4.27446e-06
-1.27682e-05
-2.36374e-06
-1.17553e-05
-7.44802e-07
-8.77233e-06
-3.57742e-06
-7.54155e-07
4.06415e-06
-2.2846e-06
9.57436e-06
-3.98747e-06
1.25291e-05
-5.50979e-06
1.34571e-05
-6.71053e-06
1.2965e-05
-7.57969e-06
1.15498e-05
-8.17135e-06
9.5665e-06
-8.55905e-06
7.24619e-06
-8.80921e-06
4.7256e-06
-8.96655e-06
2.07829e-06
-9.04581e-06
-6.57913e-07
-9.02708e-06
-3.45589e-06
-8.85378e-06
-6.27344e-06
-8.43581e-06
-9.02262e-06
-7.66367e-06
-1.15315e-05
-6.44255e-06
-1.3499e-05
-4.75659e-06
-1.44541e-05
-2.76691e-06
-1.3745e-05
-9.22482e-07
-1.06168e-05
-4.4999e-06
-9.453e-07
5.00945e-06
-2.64879e-06
1.12779e-05
-4.31155e-06
1.41919e-05
-5.57414e-06
1.47197e-05
-6.37181e-06
1.37627e-05
-6.78466e-06
1.19626e-05
-6.94209e-06
9.72394e-06
-6.97147e-06
7.27558e-06
-6.97461e-06
4.72874e-06
-7.01835e-06
2.12203e-06
-7.13039e-06
-5.45867e-07
-7.29542e-06
-3.29086e-06
-7.45011e-06
-6.11874e-06
-7.47913e-06
-8.99361e-06
-7.21891e-06
-1.17917e-05
-6.48345e-06
-1.42345e-05
-5.13388e-06
-1.58037e-05
-3.2152e-06
-1.56637e-05
-1.16445e-06
-1.26675e-05
-5.66436e-06
-1.23741e-06
6.24686e-06
-3.0836e-06
1.3124e-05
-4.50829e-06
1.56165e-05
-5.23537e-06
1.54468e-05
-5.35641e-06
1.38837e-05
-5.08331e-06
1.16895e-05
-4.63261e-06
9.27324e-06
-4.18116e-06
6.82413e-06
-3.85637e-06
4.40394e-06
-3.73906e-06
2.00472e-06
-3.86712e-06
-4.17811e-07
-4.2345e-06
-2.92348e-06
-4.78374e-06
-5.5695e-06
-5.39247e-06
-8.38488e-06
-5.85961e-06
-1.13246e-05
-5.90738e-06
-1.41867e-05
-5.23333e-06
-1.64777e-05
-3.66653e-06
-1.72305e-05
-1.50015e-06
-1.48339e-05
-7.16451e-06
-1.67389e-06
7.92075e-06
-3.51364e-06
1.49638e-05
-4.31584e-06
1.64187e-05
-4.0897e-06
1.52206e-05
-3.19418e-06
1.29882e-05
-2.00017e-06
1.04955e-05
-7.96823e-07
8.0699e-06
2.1746e-07
5.80984e-06
9.16231e-07
3.70517e-06
1.22356e-06
1.69739e-06
1.10006e-06
-2.9431e-07
5.39178e-07
-2.3626e-06
-4.24617e-07
-4.60571e-06
-1.694e-06
-7.11549e-06
-3.07355e-06
-9.94501e-06
-4.23165e-06
-1.30286e-05
-4.69618e-06
-1.60132e-05
-3.96745e-06
-1.79592e-05
-1.945e-06
-1.68563e-05
-9.10951e-06
-2.23075e-06
1.01515e-05
-3.59051e-06
1.63236e-05
-3.07821e-06
1.59064e-05
-1.34456e-06
1.3487e-05
8.96075e-07
1.07476e-05
3.15374e-06
8.23782e-06
5.13664e-06
6.08699e-06
6.68703e-06
4.25946e-06
7.72404e-06
2.66816e-06
8.20471e-06
1.21672e-06
8.10208e-06
-1.91674e-07
7.39733e-06
-1.65785e-06
6.08533e-06
-3.2937e-06
4.19788e-06
-5.22805e-06
1.85311e-06
-7.60024e-06
-6.62472e-07
-1.0513e-05
-2.79266e-06
-1.3883e-05
-3.66234e-06
-1.70895e-05
-2.41161e-06
-1.81071e-05
-1.15211e-05
-2.57384e-06
1.27253e-05
-2.18358e-06
1.59333e-05
7.17796e-07
1.30051e-05
4.46909e-06
9.73571e-06
8.13259e-06
7.08409e-06
1.13006e-05
5.06976e-06
1.3828e-05
3.55968e-06
1.56868e-05
2.40062e-06
1.68903e-05
1.46469e-06
1.74534e-05
6.53563e-07
1.73749e-05
-1.13176e-07
1.66291e-05
-9.12069e-07
1.5166e-05
-1.83053e-06
1.29225e-05
-2.98456e-06
9.86094e-06
-4.53869e-06
6.06137e-06
-6.71344e-06
1.91196e-06
-9.73361e-06
-1.55981e-06
-1.36178e-05
-2.45839e-06
-1.72085e-05
-1.39795e-05
-7.8501e-07
1.35104e-05
4.08076e-06
1.10675e-05
1.02974e-05
6.7884e-06
1.57934e-05
4.23975e-06
2.01576e-05
2.71985e-06
2.34575e-05
1.76988e-06
2.58601e-05
1.15708e-06
2.75207e-05
7.40008e-07
2.85532e-05
4.32265e-07
2.90255e-05
1.81212e-07
2.89613e-05
-4.89715e-08
2.83379e-05
-2.88673e-07
2.70811e-05
-5.73702e-07
2.50544e-05
-9.57909e-07
2.20512e-05
-1.53547e-06
1.78151e-05
-2.47737e-06
1.21722e-05
-4.09063e-06
5.47762e-06
-6.92321e-06
-1.29196e-07
-1.16017e-05
-1.41087e-05
1.35103e-05
2.45779e-05
3.13663e-05
3.5606e-05
3.83259e-05
4.00957e-05
4.12528e-05
4.19928e-05
4.24251e-05
4.26063e-05
4.25573e-05
4.22687e-05
4.1695e-05
4.07371e-05
3.92016e-05
3.67242e-05
3.26336e-05
2.57104e-05
1.41087e-05
)
;

boundaryField
{
    movingWall
    {
        type            calculated;
        value           uniform 0;
    }
    fixedWalls
    {
        type            calculated;
        value           uniform 0;
    }
    frontAndBack
    {
        type            empty;
        value           nonuniform List<scalar> 0();
    }
}


// ************************************************************************* //
