# Region type : patch atmosphere
# Faces  :    1200
# Area   :    9.444736e+02
# Time        	sum(rhoPhi)
0             	0.000000e+00
0.119048      	3.645187e+02
0.177515      	1.244625e+04
0.247675      	4.952001e+03
0.331747      	1.415134e+03
0.43142       	4.873608e+03
0.551027      	2.154393e+03
0.684111      	5.326250e+03
0.842008      	2.195650e+03
0.96746       	6.525270e+03
1.11553       	2.507124e+03
1.25883       	6.074495e+03
1.42376       	2.299776e+03
1.55176       	6.617318e+03
1.70262       	2.732500e+03
1.84091       	6.536554e+03
2.0009        	2.485769e+03
2.12991       	6.692376e+03
2.28126       	2.605530e+03
2.43564       	5.789154e+03
2.61155       	2.326029e+03
2.7171        	8.033051e+03
2.84267       	3.211334e+03
2.98301       	5.013788e+03
3.14619       	2.549694e+03
3.27312       	6.420010e+03
3.4226        	2.603493e+03
3.55684       	6.147476e+03
3.71399       	2.512130e+03
3.82828       	7.358792e+03
3.96244       	2.848659e+03
4.1097        	5.453288e+03
4.28295       	2.081524e+03
4.38152       	7.740537e+03
4.49857       	3.193141e+03
4.63275       	4.824055e+03
4.7861        	3.658805e+03
4.9441        	5.434476e+03
5.12466       	2.470221e+03
5.22623       	7.367025e+03
5.34558       	2.975024e+03
5.47856       	4.954603e+03
5.63447       	3.328323e+03
5.75574       	6.045129e+03
5.89721       	3.200336e+03
6.01444       	5.595334e+03
6.15187       	2.925650e+03
6.28456       	5.449620e+03
6.43937       	2.737615e+03
6.54111       	6.812931e+03
6.66038       	3.455084e+03
6.79396       	5.484353e+03
6.94663       	2.643988e+03
7.06877       	6.413904e+03
7.20835       	2.520662e+03
7.33524       	6.022347e+03
7.47549       	2.524083e+03
7.59571       	6.858208e+03
7.72928       	2.593538e+03
7.84879       	6.110464e+03
7.98324       	2.293056e+03
8.11769       	6.192094e+03
8.26248       	2.377087e+03
8.37832       	6.525285e+03
8.50306       	2.634584e+03
8.63915       	6.410539e+03
8.79035       	2.405938e+03
8.90032       	6.642612e+03
9.02251       	2.579930e+03
9.14469       	5.642088e+03
9.26688       	2.234962e+03
9.38907       	6.891151e+03
9.51125       	2.530502e+03
9.63344       	6.162533e+03
9.75563       	2.221719e+03
9.87781       	6.366426e+03
10            	2.345729e+03
10.1351       	6.057736e+03
10.2721       	2.251778e+03
10.3953       	7.024543e+03
10.5325       	2.646875e+03
10.6781       	5.745378e+03
10.8389       	2.134198e+03
10.9548       	7.035476e+03
11.0879       	2.825428e+03
11.2364       	5.539674e+03
11.4017       	2.392871e+03
11.5029       	7.951920e+03
11.6209       	3.038001e+03
11.7561       	4.590104e+03
11.9087       	2.805358e+03
12.0482       	5.894830e+03
12.2041       	2.215104e+03
12.3028       	7.892866e+03
12.4177       	2.997575e+03
12.5484       	4.802882e+03
12.6945       	2.694781e+03
12.825        	5.818154e+03
12.9714       	2.332783e+03
13.0867       	6.832208e+03
13.2196       	2.678688e+03
13.3609       	6.123894e+03
13.5189       	2.229023e+03
13.6326       	6.870298e+03
13.76         	2.691697e+03
13.9018       	5.461914e+03
14.0582       	2.223110e+03
14.1572       	8.199036e+03
14.2718       	3.281395e+03
14.4019       	5.031969e+03
14.5493       	3.169508e+03
14.7007       	5.739600e+03
14.8663       	2.219301e+03
14.958        	8.310758e+03
15.0652       	3.377089e+03
15.1856       	4.809365e+03
15.3193       	3.933868e+03
15.4612       	4.865951e+03
15.6125       	3.210503e+03
15.7195       	5.892807e+03
15.8384       	3.402565e+03
15.9684       	5.482841e+03
16.1124       	3.265870e+03
16.2339       	5.995967e+03
16.3594       	3.139363e+03
16.4995       	5.470688e+03
16.6517       	2.826371e+03
16.7671       	6.120510e+03
16.8964       	3.252256e+03
17.0375       	5.668991e+03
17.1722       	2.652947e+03
17.2809       	6.339540e+03
17.3991       	3.002077e+03
17.5292       	4.918461e+03
17.6665       	2.438587e+03
17.7831       	6.419588e+03
17.9135       	2.948327e+03
18.0439       	5.634810e+03
18.1837       	2.548849e+03
18.3047       	6.094028e+03
18.4352       	2.738985e+03
18.5774       	5.255142e+03
18.7355       	2.450757e+03
18.8409       	6.982241e+03
18.9568       	3.226411e+03
19.0872       	4.988982e+03
19.2176       	2.737634e+03
19.348        	5.641614e+03
19.4784       	2.544765e+03
19.6088       	5.841947e+03
19.7392       	2.593661e+03
19.8696       	6.199852e+03
20            	2.730451e+03
20.1429       	5.727221e+03
20.3018       	2.549095e+03
20.4312       	5.997535e+03
20.5761       	2.813710e+03
20.7189       	5.758690e+03
20.8639       	2.609208e+03
20.9811       	6.708254e+03
21.1137       	2.989890e+03
21.2618       	4.960112e+03
21.4236       	2.290072e+03
21.527        	6.928512e+03
21.648        	3.209592e+03
21.7849       	4.863601e+03
21.937        	3.365546e+03
22.0864       	5.473270e+03
22.214        	2.353012e+03
22.3338       	6.310498e+03
22.4757       	2.787456e+03
22.6126       	5.371528e+03
22.7665       	2.732696e+03
22.8777       	6.835842e+03
23.0027       	3.161201e+03
23.1426       	4.924213e+03
23.2985       	2.259771e+03
23.4066       	6.689144e+03
23.531        	3.149889e+03
23.6716       	4.929245e+03
23.8122       	3.256085e+03
23.9385       	5.932987e+03
24.0795       	2.693025e+03
24.214        	5.813472e+03
24.3624       	2.643529e+03
24.4935       	5.792020e+03
24.6384       	2.767572e+03
24.7576       	6.485228e+03
24.892        	2.952528e+03
25.023        	5.392057e+03
25.1693       	2.494160e+03
25.2932       	6.089410e+03
25.4316       	2.817128e+03
25.566        	5.631027e+03
25.7004       	2.704015e+03
25.8232       	6.507710e+03
25.9624       	2.865162e+03
26.1066       	5.207754e+03
26.2624       	2.426523e+03
26.3723       	6.570900e+03
26.4974       	3.048672e+03
26.6375       	5.356162e+03
26.7903       	2.673843e+03
26.905        	6.498148e+03
27.0339       	2.971388e+03
27.1752       	5.029566e+03
27.3321       	2.423799e+03
27.4347       	7.096709e+03
27.5513       	3.237352e+03
27.6802       	5.040275e+03
27.8252       	3.088106e+03
27.9611       	5.506504e+03
28.097        	2.547828e+03
28.209        	6.334928e+03
28.3369       	2.845207e+03
28.4755       	5.665614e+03
28.628        	2.542897e+03
28.7335       	6.685204e+03
28.8486       	3.035271e+03
28.9766       	4.846864e+03
29.1228       	2.706477e+03
29.2324       	6.283973e+03
29.3421       	2.969725e+03
29.4517       	5.640880e+03
29.5614       	3.124435e+03
29.671        	5.312542e+03
29.7807       	2.961180e+03
29.8903       	5.404740e+03
30            	2.828366e+03
30.1235       	5.763368e+03
30.2687       	2.829208e+03
30.3888       	6.324569e+03
30.5223       	3.011969e+03
30.6704       	5.325633e+03
30.8162       	2.412421e+03
30.9324       	6.485904e+03
31.0678       	2.980789e+03
31.2166       	5.374990e+03
31.3518       	2.528856e+03
31.4671       	6.556388e+03
31.5984       	2.933604e+03
31.7458       	5.020172e+03
31.9015       	2.357645e+03
32.004        	7.226988e+03
32.1234       	3.324222e+03
32.2569       	4.839771e+03
32.4058       	3.188603e+03
32.564        	5.391552e+03
32.6992       	2.354586e+03
32.8115       	6.594200e+03
32.9422       	2.991614e+03
33.0862       	5.377855e+03
33.247        	2.620015e+03
33.3525       	6.806400e+03
33.4734       	3.147368e+03
33.6123       	4.659968e+03
33.7644       	2.783667e+03
33.8777       	6.406241e+03
34.0053       	3.051368e+03
34.1447       	5.668789e+03
34.2841       	2.588789e+03
34.4032       	6.107839e+03
34.5397       	2.797887e+03
34.6914       	5.276008e+03
34.8388       	2.397880e+03
34.9442       	7.118782e+03
35.0645       	3.228102e+03
35.2016       	4.824002e+03
35.3564       	2.773705e+03
35.4854       	5.949622e+03
35.6265       	2.822450e+03
35.7551       	5.921674e+03
35.9015       	2.749977e+03
36.0257       	6.226199e+03
36.1539       	2.840537e+03
36.2821       	5.422281e+03
36.4251       	2.487294e+03
36.5484       	6.165781e+03
36.6864       	2.871331e+03
36.8245       	5.839753e+03
36.9688       	2.649124e+03
37.0951       	6.150336e+03
37.2335       	2.800564e+03
37.3718       	5.408580e+03
37.5264       	2.554444e+03
37.6388       	6.763162e+03
37.7631       	3.060177e+03
37.9029       	5.407391e+03
38.0527       	2.434778e+03
38.1744       	6.360960e+03
38.3048       	2.906432e+03
38.4461       	5.068318e+03
38.6015       	2.634531e+03
38.7014       	7.306201e+03
38.8096       	3.254388e+03
38.9286       	4.772145e+03
39.0625       	3.204750e+03
39.1965       	5.045118e+03
39.3304       	2.546583e+03
39.442        	6.629717e+03
39.5536       	3.000374e+03
39.6652       	5.482643e+03
39.7768       	3.157619e+03
39.8884       	5.256979e+03
40            	2.892872e+03
40.1266       	5.412805e+03
40.2718       	2.604014e+03
40.3904       	6.545773e+03
40.5221       	3.124562e+03
40.6679       	5.431801e+03
40.826        	2.419930e+03
40.9379       	6.561887e+03
41.0656       	3.033088e+03
41.2097       	4.771418e+03
41.3586       	2.795684e+03
41.4603       	6.918347e+03
41.5789       	3.315253e+03
41.7147       	4.963251e+03
41.8682       	2.651662e+03
41.9827       	6.191272e+03
42.112        	3.087404e+03
42.2554       	5.263699e+03
42.4168       	2.862955e+03
42.5251       	6.845196e+03
42.6476       	3.173712e+03
42.7864       	4.915415e+03
42.9399       	2.587803e+03
43.0556       	6.272471e+03
43.1866       	2.970081e+03
43.3202       	5.545746e+03
43.4687       	2.981194e+03
43.5967       	6.156917e+03
43.739        	2.776833e+03
43.8881       	5.491409e+03
44.0489       	2.548451e+03
44.1634       	6.450300e+03
44.2931       	3.024968e+03
44.4357       	5.705009e+03
44.5822       	2.531189e+03
44.6905       	6.342099e+03
44.814        	2.923718e+03
44.9542       	4.936568e+03
45.1071       	2.528209e+03
45.2134       	7.160833e+03
45.3362       	3.290633e+03
45.4733       	5.139593e+03
45.6242       	2.661919e+03
45.7425       	6.058232e+03
45.8755       	2.872398e+03
46.0228       	5.400296e+03
46.1819       	2.512221e+03
46.2851       	7.289208e+03
46.4012       	3.295592e+03
46.5345       	4.634118e+03
46.6852       	2.853092e+03
46.8178       	5.593783e+03
46.9504       	2.738412e+03
47.0677       	6.131280e+03
47.2009       	2.870571e+03
47.3282       	6.012060e+03
47.4688       	2.711820e+03
47.602        	5.783270e+03
47.7431       	2.653337e+03
47.8758       	5.822830e+03
48.0174       	2.650946e+03
48.1341       	6.386989e+03
48.2585       	2.901549e+03
48.3829       	5.535530e+03
48.5176       	2.617072e+03
48.6412       	5.849416e+03
48.777        	2.743471e+03
48.9129       	5.770079e+03
49.0488       	2.583658e+03
49.1677       	6.509499e+03
49.2866       	2.833914e+03
49.4055       	5.151972e+03
49.5244       	2.463211e+03
49.6433       	5.786117e+03
49.7622       	2.629607e+03
49.8811       	5.904818e+03
50            	2.816815e+03
50.1316       	5.942894e+03
50.2789       	2.689268e+03
50.4051       	5.904103e+03
50.5462       	2.741122e+03
50.6917       	5.650022e+03
50.8468       	2.613127e+03
50.9612       	6.875001e+03
51.0903       	3.106492e+03
51.2364       	5.019807e+03
51.3875       	2.299379e+03
51.4952       	6.691805e+03
51.6202       	3.104418e+03
51.7623       	4.820142e+03
51.9148       	3.336201e+03
52.0518       	6.035418e+03
52.1913       	2.675005e+03
52.3259       	5.922518e+03
52.4764       	2.663008e+03
52.6132       	5.592068e+03
52.7639       	2.687587e+03
52.877        	6.718500e+03
53.0042       	3.133202e+03
53.1441       	5.190340e+03
53.2965       	2.385514e+03
53.4101       	6.478457e+03
53.5419       	3.014620e+03
53.6887       	5.030081e+03
53.8259       	2.863765e+03
53.9361       	6.742985e+03
54.0624       	3.063461e+03
54.2038       	5.042532e+03
54.3605       	2.358330e+03
54.4689       	6.697515e+03
54.5946       	3.146481e+03
54.7369       	5.082614e+03
54.8872       	3.104908e+03
55.0151       	6.139737e+03
55.1575       	2.813998e+03
55.2884       	5.615042e+03
55.4356       	2.595252e+03
55.5557       	6.122232e+03
55.6904       	2.884653e+03
55.8101       	6.055111e+03
55.941        	2.809323e+03
56.086        	5.628136e+03
56.2426       	2.513591e+03
56.36         	6.146642e+03
56.49         	2.899855e+03
56.6304       	5.652633e+03
56.7708       	2.744969e+03
56.8821       	6.476491e+03
57.0069       	2.959546e+03
57.1494       	5.113470e+03
57.3078       	2.394393e+03
57.4113       	7.013825e+03
57.529        	3.216569e+03
57.659        	5.052731e+03
57.8053       	3.205440e+03
57.9621       	5.456409e+03
58.0895       	2.323948e+03
58.2019       	6.369549e+03
58.3303       	2.840248e+03
58.4694       	5.428059e+03
58.6225       	2.661410e+03
58.7373       	6.764309e+03
58.8636       	3.059474e+03
59.0056       	4.968984e+03
59.1477       	2.241642e+03
59.2542       	6.755416e+03
59.3785       	3.148701e+03
59.5028       	5.175519e+03
59.6271       	3.312010e+03
59.7514       	5.488627e+03
59.8757       	2.580521e+03
60            	6.019406e+03
60.1408       	2.759528e+03
60.2759       	5.771755e+03
60.4255       	2.705860e+03
60.5437       	6.632776e+03
60.6769       	3.000674e+03
60.8249       	5.100365e+03
60.9858       	2.357035e+03
61.0932       	6.684666e+03
61.2169       	3.160326e+03
61.3563       	5.010875e+03
61.5106       	3.263440e+03
61.6254       	5.991374e+03
61.7542       	2.834603e+03
61.8964       	5.635224e+03
62.0553       	2.573418e+03
62.1626       	6.411497e+03
62.2851       	3.047186e+03
62.4204       	5.639524e+03
62.569        	2.740172e+03
62.695        	6.136529e+03
62.8355       	2.796944e+03
62.9634       	5.426257e+03
63.107        	2.587587e+03
63.2238       	6.518720e+03
63.3542       	3.001019e+03
63.4772       	5.678986e+03
63.6131       	2.656679e+03
63.749        	5.879813e+03
63.9015       	2.676018e+03
64.0285       	5.854403e+03
64.1707       	2.790603e+03
64.2947       	6.396513e+03
64.4306       	2.953512e+03
64.5543       	5.649132e+03
64.694        	2.589515e+03
64.8234       	5.908128e+03
64.9672       	2.742692e+03
65.087        	5.975537e+03
65.2198       	2.902313e+03
65.3526       	6.097145e+03
65.4893       	2.739372e+03
65.6049       	5.785245e+03
65.7381       	2.671709e+03
65.8851       	5.567397e+03
66.032        	2.553043e+03
66.1338       	6.885274e+03
66.2509       	3.208401e+03
66.3848       	5.120484e+03
66.5355       	2.562420e+03
66.6549       	6.227552e+03
66.7836       	2.953831e+03
66.9073       	5.440536e+03
67.0479       	3.096046e+03
67.1762       	6.102261e+03
67.3174       	2.754314e+03
67.434        	6.015513e+03
67.5623       	2.842647e+03
67.6978       	5.331963e+03
67.8513       	2.478601e+03
67.9536       	6.941937e+03
68.0673       	3.238181e+03
68.1961       	5.162955e+03
68.3349       	2.850343e+03
68.463        	5.714661e+03
68.6027       	2.721202e+03
68.7191       	5.968233e+03
68.8472       	2.744312e+03
68.9753       	6.134924e+03
69.1034       	2.684352e+03
69.2155       	5.988478e+03
69.3275       	2.656104e+03
69.4396       	5.487361e+03
69.5517       	2.486722e+03
69.6638       	5.951818e+03
69.7758       	2.700032e+03
69.8879       	6.113188e+03
70            	2.840985e+03
70.1266       	5.656327e+03
70.2739       	2.546969e+03
70.4036       	6.100613e+03
70.549        	2.826982e+03
70.686        	5.826732e+03
