# Region type : patch inlet
# Faces  :    200
# Area   :    2.100000e+01
# Time        	sum(rhoPhi)
0             	-5.000000e+04
0.119048      	-5.000000e+04
0.172748      	-5.000000e+04
0.236562      	-5.000000e+04
0.309423      	-5.000000e+04
0.357396      	-5.000000e+04
0.414118      	-5.000000e+04
0.479774      	-5.000000e+04
0.543242      	-5.000000e+04
0.616551      	-5.000000e+04
0.69959       	-5.000000e+04
0.793534      	-5.000000e+04
0.880387      	-5.000000e+04
0.95453       	-5.000000e+04
1.03752       	-5.000000e+04
1.08962       	-5.000000e+04
1.14429       	-5.000000e+04
1.20989       	-5.000000e+04
1.28438       	-5.000000e+04
1.34619       	-5.000000e+04
1.41542       	-5.000000e+04
1.49797       	-5.000000e+04
1.53985       	-5.000000e+04
1.58991       	-5.000000e+04
1.64998       	-5.000000e+04
1.71732       	-5.000000e+04
1.77484       	-5.000000e+04
1.8386        	-5.000000e+04
1.91417       	-5.000000e+04
1.98269       	-5.000000e+04
2.04841       	-5.000000e+04
2.11696       	-5.000000e+04
2.19907       	-5.000000e+04
2.2455        	-5.000000e+04
2.30089       	-5.000000e+04
2.36727       	-5.000000e+04
2.42339       	-5.000000e+04
2.48706       	-5.000000e+04
2.55861       	-5.000000e+04
2.63777       	-5.000000e+04
2.68527       	-5.000000e+04
2.74069       	-5.000000e+04
2.80493       	-5.000000e+04
2.8686        	-5.000000e+04
2.92565       	-5.000000e+04
2.98938       	-5.000000e+04
3.06559       	-5.000000e+04
3.13163       	-5.000000e+04
3.18702       	-5.000000e+04
3.25129       	-5.000000e+04
3.32309       	-5.000000e+04
3.37693       	-5.000000e+04
3.44124       	-5.000000e+04
3.51101       	-5.000000e+04
3.56695       	-5.000000e+04
3.6288        	-5.000000e+04
3.70289       	-5.000000e+04
3.75962       	-5.000000e+04
3.81484       	-5.000000e+04
3.87995       	-5.000000e+04
3.93937       	-5.000000e+04
3.993         	-5.000000e+04
4.05691       	-5.000000e+04
4.12766       	-5.000000e+04
4.19757       	-5.000000e+04
4.25129       	-5.000000e+04
4.31447       	-5.000000e+04
4.38135       	-5.000000e+04
4.45627       	-5.000000e+04
4.52388       	-5.000000e+04
4.58541       	-5.000000e+04
4.65572       	-5.000000e+04
4.71258       	-5.000000e+04
4.77706       	-5.000000e+04
4.84861       	-5.000000e+04
4.90283       	-5.000000e+04
4.95884       	-5.000000e+04
5.02348       	-5.000000e+04
5.08983       	-5.000000e+04
5.15444       	-5.000000e+04
5.22081       	-5.000000e+04
5.28719       	-5.000000e+04
5.33628       	-5.000000e+04
5.39247       	-5.000000e+04
5.45829       	-5.000000e+04
5.53038       	-5.000000e+04
5.6088        	-5.000000e+04
5.66979       	-5.000000e+04
5.73963       	-5.000000e+04
5.81437       	-5.000000e+04
5.88413       	-5.000000e+04
5.9413        	-5.000000e+04
6.00676       	-5.000000e+04
6.08071       	-5.000000e+04
6.13515       	-5.000000e+04
6.19956       	-5.000000e+04
6.27127       	-5.000000e+04
6.3506        	-5.000000e+04
6.40762       	-5.000000e+04
6.46956       	-5.000000e+04
6.53878       	-5.000000e+04
6.59846       	-5.000000e+04
6.66516       	-5.000000e+04
6.74095       	-5.000000e+04
6.8013        	-5.000000e+04
6.86936       	-5.000000e+04
6.9439        	-5.000000e+04
6.99092       	-5.000000e+04
7.04465       	-5.000000e+04
7.1089        	-5.000000e+04
7.16672       	-5.000000e+04
7.23111       	-5.000000e+04
7.30211       	-5.000000e+04
7.38146       	-5.000000e+04
7.4274        	-5.000000e+04
7.4799        	-5.000000e+04
7.5429        	-5.000000e+04
7.61517       	-5.000000e+04
7.66817       	-5.000000e+04
7.72646       	-5.000000e+04
7.79333       	-5.000000e+04
7.86229       	-5.000000e+04
7.93864       	-5.000000e+04
8.02109       	-5.000000e+04
8.06067       	-5.000000e+04
8.10797       	-5.000000e+04
8.16362       	-5.000000e+04
8.22286       	-5.000000e+04
8.29121       	-5.000000e+04
8.35013       	-5.000000e+04
8.41613       	-5.000000e+04
8.48812       	-5.000000e+04
8.54859       	-5.000000e+04
8.61457       	-5.000000e+04
8.6748        	-5.000000e+04
8.74106       	-5.000000e+04
8.81975       	-5.000000e+04
8.8619        	-5.000000e+04
8.91138       	-5.000000e+04
8.96868       	-5.000000e+04
9.02934       	-5.000000e+04
9.08644       	-5.000000e+04
9.1517        	-5.000000e+04
9.21695       	-5.000000e+04
9.27288       	-5.000000e+04
9.33347       	-5.000000e+04
9.40013       	-5.000000e+04
9.45466       	-5.000000e+04
9.51525       	-5.000000e+04
9.56912       	-5.000000e+04
9.63067       	-5.000000e+04
9.69223       	-5.000000e+04
9.75378       	-5.000000e+04
9.81534       	-5.000000e+04
9.87689       	-5.000000e+04
9.93845       	-5.000000e+04
10            	-5.000000e+04
10.0529       	-5.000000e+04
10.1163       	-5.000000e+04
10.1879       	-5.000000e+04
10.2362       	-5.000000e+04
10.293        	-5.000000e+04
10.3609       	-5.000000e+04
10.4235       	-5.000000e+04
10.4919       	-5.000000e+04
10.5685       	-5.000000e+04
10.6567       	-5.000000e+04
10.7174       	-5.000000e+04
10.7673       	-5.000000e+04
10.8268       	-5.000000e+04
10.8953       	-5.000000e+04
10.9613       	-5.000000e+04
11.0282       	-5.000000e+04
11.1036       	-5.000000e+04
11.19         	-5.000000e+04
11.2412       	-5.000000e+04
11.3025       	-5.000000e+04
11.3726       	-5.000000e+04
11.42         	-5.000000e+04
11.4747       	-5.000000e+04
11.5392       	-5.000000e+04
11.6148       	-5.000000e+04
11.6742       	-5.000000e+04
11.7403       	-5.000000e+04
11.8154       	-5.000000e+04
11.8765       	-5.000000e+04
11.9442       	-5.000000e+04
12.0216       	-5.000000e+04
12.1074       	-5.000000e+04
12.1696       	-5.000000e+04
12.2389       	-5.000000e+04
12.3114       	-5.000000e+04
12.3734       	-5.000000e+04
12.4291       	-5.000000e+04
12.4944       	-5.000000e+04
12.5476       	-5.000000e+04
12.6058       	-5.000000e+04
12.6749       	-5.000000e+04
12.752        	-5.000000e+04
12.8057       	-5.000000e+04
12.8657       	-5.000000e+04
12.937        	-5.000000e+04
12.9979       	-5.000000e+04
13.0659       	-5.000000e+04
13.1227       	-5.000000e+04
13.1795       	-5.000000e+04
13.2478       	-5.000000e+04
13.3181       	-5.000000e+04
13.3907       	-5.000000e+04
13.444        	-5.000000e+04
13.5071       	-5.000000e+04
13.5754       	-5.000000e+04
13.6484       	-5.000000e+04
13.7095       	-5.000000e+04
13.7694       	-5.000000e+04
13.841        	-5.000000e+04
13.8965       	-5.000000e+04
13.9588       	-5.000000e+04
14.029        	-5.000000e+04
14.0912       	-5.000000e+04
14.1353       	-5.000000e+04
14.1881       	-5.000000e+04
14.2493       	-5.000000e+04
14.3105       	-5.000000e+04
14.3782       	-5.000000e+04
14.4494       	-5.000000e+04
14.5033       	-5.000000e+04
14.5637       	-5.000000e+04
14.6343       	-5.000000e+04
14.6946       	-5.000000e+04
14.751        	-5.000000e+04
14.8183       	-5.000000e+04
14.8923       	-5.000000e+04
14.936        	-5.000000e+04
14.9882       	-5.000000e+04
15.0508       	-5.000000e+04
15.1035       	-5.000000e+04
15.1663       	-5.000000e+04
15.2374       	-5.000000e+04
15.2969       	-5.000000e+04
15.3631       	-5.000000e+04
15.4417       	-5.000000e+04
15.5042       	-5.000000e+04
15.5597       	-5.000000e+04
15.6213       	-5.000000e+04
15.6943       	-5.000000e+04
15.7432       	-5.000000e+04
15.8016       	-5.000000e+04
15.8682       	-5.000000e+04
15.9162       	-5.000000e+04
15.9722       	-5.000000e+04
16.0382       	-5.000000e+04
16.1144       	-5.000000e+04
16.1669       	-5.000000e+04
16.225        	-5.000000e+04
16.2936       	-5.000000e+04
16.3498       	-5.000000e+04
16.4087       	-5.000000e+04
16.474        	-5.000000e+04
16.5459       	-5.000000e+04
16.6016       	-5.000000e+04
16.6657       	-5.000000e+04
16.7382       	-5.000000e+04
16.7935       	-5.000000e+04
16.8564       	-5.000000e+04
16.9262       	-5.000000e+04
16.9961       	-5.000000e+04
17.047        	-5.000000e+04
17.1049       	-5.000000e+04
17.1738       	-5.000000e+04
17.2293       	-5.000000e+04
17.2908       	-5.000000e+04
17.3603       	-5.000000e+04
17.4232       	-5.000000e+04
17.4718       	-5.000000e+04
17.528        	-5.000000e+04
17.5948       	-5.000000e+04
17.6699       	-5.000000e+04
17.7175       	-5.000000e+04
17.7732       	-5.000000e+04
17.8386       	-5.000000e+04
17.8987       	-5.000000e+04
17.9624       	-5.000000e+04
18.0281       	-5.000000e+04
18.1011       	-5.000000e+04
18.1837       	-5.000000e+04
18.2371       	-5.000000e+04
18.2959       	-5.000000e+04
18.364        	-5.000000e+04
18.4204       	-5.000000e+04
18.4863       	-5.000000e+04
18.5583       	-5.000000e+04
18.6138       	-5.000000e+04
18.6692       	-5.000000e+04
18.7326       	-5.000000e+04
18.803        	-5.000000e+04
18.8551       	-5.000000e+04
18.9123       	-5.000000e+04
18.9727       	-5.000000e+04
19.0369       	-5.000000e+04
19.1057       	-5.000000e+04
19.1583       	-5.000000e+04
19.2185       	-5.000000e+04
19.2836       	-5.000000e+04
19.3348       	-5.000000e+04
19.3902       	-5.000000e+04
19.4512       	-5.000000e+04
19.5198       	-5.000000e+04
19.5731       	-5.000000e+04
19.6265       	-5.000000e+04
19.6887       	-5.000000e+04
19.751        	-5.000000e+04
19.8132       	-5.000000e+04
19.8599       	-5.000000e+04
19.9066       	-5.000000e+04
19.9533       	-5.000000e+04
20            	-5.000000e+04
20.0559       	-5.000000e+04
20.118        	-5.000000e+04
20.1758       	-5.000000e+04
20.2388       	-5.000000e+04
20.2987       	-5.000000e+04
20.366        	-5.000000e+04
20.4431       	-5.000000e+04
20.4965       	-5.000000e+04
20.5603       	-5.000000e+04
20.6313       	-5.000000e+04
20.6874       	-5.000000e+04
20.7511       	-5.000000e+04
20.8251       	-5.000000e+04
20.8719       	-5.000000e+04
20.9279       	-5.000000e+04
20.9946       	-5.000000e+04
21.0716       	-5.000000e+04
21.1165       	-5.000000e+04
21.1687       	-5.000000e+04
21.2314       	-5.000000e+04
21.2891       	-5.000000e+04
21.3522       	-5.000000e+04
21.4225       	-5.000000e+04
21.5027       	-5.000000e+04
21.5504       	-5.000000e+04
21.6064       	-5.000000e+04
21.673        	-5.000000e+04
21.7292       	-5.000000e+04
21.7954       	-5.000000e+04
21.8566       	-5.000000e+04
21.9165       	-5.000000e+04
21.9797       	-5.000000e+04
22.0342       	-5.000000e+04
22.0964       	-5.000000e+04
22.1658       	-5.000000e+04
22.2242       	-5.000000e+04
22.289        	-5.000000e+04
22.3618       	-5.000000e+04
22.4229       	-5.000000e+04
22.4924       	-5.000000e+04
22.5706       	-5.000000e+04
22.6273       	-5.000000e+04
22.6914       	-5.000000e+04
22.7668       	-5.000000e+04
22.8065       	-5.000000e+04
22.8542       	-5.000000e+04
22.9113       	-5.000000e+04
22.9746       	-5.000000e+04
23.0463       	-5.000000e+04
23.1011       	-5.000000e+04
23.1668       	-5.000000e+04
23.2427       	-5.000000e+04
23.2967       	-5.000000e+04
23.3577       	-5.000000e+04
23.4269       	-5.000000e+04
23.4778       	-5.000000e+04
23.5388       	-5.000000e+04
23.6106       	-5.000000e+04
23.6625       	-5.000000e+04
23.7201       	-5.000000e+04
23.7891       	-5.000000e+04
23.8472       	-5.000000e+04
23.91         	-5.000000e+04
23.98         	-5.000000e+04
24.0582       	-5.000000e+04
24.1112       	-5.000000e+04
24.1719       	-5.000000e+04
24.2421       	-5.000000e+04
24.3199       	-5.000000e+04
24.3681       	-5.000000e+04
24.4233       	-5.000000e+04
24.4889       	-5.000000e+04
24.5596       	-5.000000e+04
24.6251       	-5.000000e+04
24.6968       	-5.000000e+04
24.7796       	-5.000000e+04
24.8243       	-5.000000e+04
24.8776       	-5.000000e+04
24.9393       	-5.000000e+04
24.9989       	-5.000000e+04
25.0664       	-5.000000e+04
25.1412       	-5.000000e+04
25.2005       	-5.000000e+04
25.259        	-5.000000e+04
25.3214       	-5.000000e+04
25.3751       	-5.000000e+04
25.436        	-5.000000e+04
25.496        	-5.000000e+04
25.5643       	-5.000000e+04
25.6259       	-5.000000e+04
25.6858       	-5.000000e+04
25.7565       	-5.000000e+04
25.8103       	-5.000000e+04
25.8654       	-5.000000e+04
25.931        	-5.000000e+04
25.9988       	-5.000000e+04
26.0501       	-5.000000e+04
26.1082       	-5.000000e+04
26.1742       	-5.000000e+04
26.2266       	-5.000000e+04
26.2865       	-5.000000e+04
26.3552       	-5.000000e+04
26.416        	-5.000000e+04
26.4729       	-5.000000e+04
26.537        	-5.000000e+04
26.6123       	-5.000000e+04
26.6629       	-5.000000e+04
26.7204       	-5.000000e+04
26.7847       	-5.000000e+04
26.8562       	-5.000000e+04
26.923        	-5.000000e+04
26.9735       	-5.000000e+04
27.0317       	-5.000000e+04
27.0976       	-5.000000e+04
27.1621       	-5.000000e+04
27.2331       	-5.000000e+04
27.292        	-5.000000e+04
27.358        	-5.000000e+04
27.4209       	-5.000000e+04
27.4758       	-5.000000e+04
27.5374       	-5.000000e+04
27.6058       	-5.000000e+04
27.6705       	-5.000000e+04
27.7334       	-5.000000e+04
27.8065       	-5.000000e+04
27.8909       	-5.000000e+04
27.9315       	-5.000000e+04
27.9796       	-5.000000e+04
28.0373       	-5.000000e+04
28.1027       	-5.000000e+04
28.154        	-5.000000e+04
28.2136       	-5.000000e+04
28.285        	-5.000000e+04
28.3403       	-5.000000e+04
28.4018       	-5.000000e+04
28.4684       	-5.000000e+04
28.5322       	-5.000000e+04
28.5934       	-5.000000e+04
28.6604       	-5.000000e+04
28.7348       	-5.000000e+04
28.8014       	-5.000000e+04
28.8763       	-5.000000e+04
28.9325       	-5.000000e+04
28.9953       	-5.000000e+04
29.067        	-5.000000e+04
29.1137       	-5.000000e+04
29.1658       	-5.000000e+04
29.2254       	-5.000000e+04
29.2899       	-5.000000e+04
29.3491       	-5.000000e+04
29.4142       	-5.000000e+04
29.4874       	-5.000000e+04
29.5387       	-5.000000e+04
29.5964       	-5.000000e+04
29.6636       	-5.000000e+04
29.7197       	-5.000000e+04
29.7758       	-5.000000e+04
29.8318       	-5.000000e+04
29.8879       	-5.000000e+04
29.9439       	-5.000000e+04
30            	-5.000000e+04
30.0633       	-5.000000e+04
30.1391       	-5.000000e+04
30.1887       	-5.000000e+04
30.2482       	-5.000000e+04
30.3145       	-5.000000e+04
30.3747       	-5.000000e+04
30.4424       	-5.000000e+04
30.5189       	-5.000000e+04
30.5668       	-5.000000e+04
30.6219       	-5.000000e+04
30.688        	-5.000000e+04
30.7451       	-5.000000e+04
30.8089       	-5.000000e+04
30.8813       	-5.000000e+04
30.9328       	-5.000000e+04
30.9913       	-5.000000e+04
31.0612       	-5.000000e+04
31.1204       	-5.000000e+04
31.1847       	-5.000000e+04
31.2576       	-5.000000e+04
31.309        	-5.000000e+04
31.3669       	-5.000000e+04
31.436        	-5.000000e+04
31.4939       	-5.000000e+04
31.5588       	-5.000000e+04
31.6322       	-5.000000e+04
31.6971       	-5.000000e+04
31.7532       	-5.000000e+04
31.8166       	-5.000000e+04
31.8884       	-5.000000e+04
31.9595       	-5.000000e+04
32.0045       	-5.000000e+04
32.0581       	-5.000000e+04
32.1207       	-5.000000e+04
32.188        	-5.000000e+04
32.2559       	-5.000000e+04
32.3311       	-5.000000e+04
32.3806       	-5.000000e+04
32.4366       	-5.000000e+04
32.5035       	-5.000000e+04
32.5671       	-5.000000e+04
32.6385       	-5.000000e+04
32.6952       	-5.000000e+04
32.7628       	-5.000000e+04
32.8269       	-5.000000e+04
32.8986       	-5.000000e+04
32.9766       	-5.000000e+04
33.0703       	-5.000000e+04
33.1133       	-5.000000e+04
33.1647       	-5.000000e+04
33.2263       	-5.000000e+04
33.2947       	-5.000000e+04
33.3557       	-5.000000e+04
33.4242       	-5.000000e+04
33.5064       	-5.000000e+04
33.5499       	-5.000000e+04
33.602        	-5.000000e+04
33.6641       	-5.000000e+04
33.7337       	-5.000000e+04
33.7882       	-5.000000e+04
33.8491       	-5.000000e+04
33.9215       	-5.000000e+04
33.9762       	-5.000000e+04
34.039        	-5.000000e+04
34.1135       	-5.000000e+04
34.1768       	-5.000000e+04
34.2249       	-5.000000e+04
34.2815       	-5.000000e+04
34.3488       	-5.000000e+04
34.4102       	-5.000000e+04
34.4838       	-5.000000e+04
34.5457       	-5.000000e+04
34.6148       	-5.000000e+04
34.6928       	-5.000000e+04
34.7444       	-5.000000e+04
34.8034       	-5.000000e+04
34.8736       	-5.000000e+04
34.927        	-5.000000e+04
34.9874       	-5.000000e+04
35.0571       	-5.000000e+04
35.1091       	-5.000000e+04
35.1673       	-5.000000e+04
35.2363       	-5.000000e+04
35.2959       	-5.000000e+04
35.3526       	-5.000000e+04
35.4162       	-5.000000e+04
35.4846       	-5.000000e+04
35.5384       	-5.000000e+04
35.6012       	-5.000000e+04
35.6615       	-5.000000e+04
35.7293       	-5.000000e+04
35.795        	-5.000000e+04
35.8587       	-5.000000e+04
35.9301       	-5.000000e+04
35.9851       	-5.000000e+04
36.0441       	-5.000000e+04
36.1112       	-5.000000e+04
36.1729       	-5.000000e+04
36.2292       	-5.000000e+04
36.2965       	-5.000000e+04
36.3706       	-5.000000e+04
36.4256       	-5.000000e+04
36.4872       	-5.000000e+04
36.5561       	-5.000000e+04
36.6165       	-5.000000e+04
36.678        	-5.000000e+04
36.7353       	-5.000000e+04
36.7981       	-5.000000e+04
36.8634       	-5.000000e+04
36.9331       	-5.000000e+04
36.9957       	-5.000000e+04
37.061        	-5.000000e+04
37.1345       	-5.000000e+04
37.1823       	-5.000000e+04
37.2386       	-5.000000e+04
37.3028       	-5.000000e+04
37.3738       	-5.000000e+04
37.4225       	-5.000000e+04
37.4785       	-5.000000e+04
37.5448       	-5.000000e+04
37.6062       	-5.000000e+04
37.6766       	-5.000000e+04
37.7362       	-5.000000e+04
37.7942       	-5.000000e+04
37.8591       	-5.000000e+04
37.9155       	-5.000000e+04
37.975        	-5.000000e+04
38.0346       	-5.000000e+04
38.098        	-5.000000e+04
38.1614       	-5.000000e+04
38.2295       	-5.000000e+04
38.3065       	-5.000000e+04
38.3578       	-5.000000e+04
38.4144       	-5.000000e+04
38.4805       	-5.000000e+04
38.5347       	-5.000000e+04
38.5958       	-5.000000e+04
38.666        	-5.000000e+04
38.712        	-5.000000e+04
38.7635       	-5.000000e+04
38.8224       	-5.000000e+04
38.8878       	-5.000000e+04
38.9434       	-5.000000e+04
39.0095       	-5.000000e+04
39.0857       	-5.000000e+04
39.1292       	-5.000000e+04
39.1804       	-5.000000e+04
39.239        	-5.000000e+04
39.3024       	-5.000000e+04
39.3658       	-5.000000e+04
39.4363       	-5.000000e+04
39.5067       	-5.000000e+04
39.5561       	-5.000000e+04
39.6116       	-5.000000e+04
39.667        	-5.000000e+04
39.7225       	-5.000000e+04
39.778        	-5.000000e+04
39.8335       	-5.000000e+04
39.889        	-5.000000e+04
39.9445       	-5.000000e+04
40            	-5.000000e+04
40.0645       	-5.000000e+04
40.1237       	-5.000000e+04
40.1899       	-5.000000e+04
40.2648       	-5.000000e+04
40.3125       	-5.000000e+04
40.3692       	-5.000000e+04
40.437        	-5.000000e+04
40.4896       	-5.000000e+04
40.5501       	-5.000000e+04
40.6223       	-5.000000e+04
40.6784       	-5.000000e+04
40.7367       	-5.000000e+04
40.8019       	-5.000000e+04
40.8564       	-5.000000e+04
40.9169       	-5.000000e+04
40.9896       	-5.000000e+04
41.0549       	-5.000000e+04
41.1084       	-5.000000e+04
41.1697       	-5.000000e+04
41.2366       	-5.000000e+04
41.2951       	-5.000000e+04
41.36         	-5.000000e+04
41.4345       	-5.000000e+04
41.4852       	-5.000000e+04
41.5439       	-5.000000e+04
41.6085       	-5.000000e+04
41.6821       	-5.000000e+04
41.7598       	-5.000000e+04
41.8116       	-5.000000e+04
41.8737       	-5.000000e+04
41.9431       	-5.000000e+04
42.0003       	-5.000000e+04
42.0653       	-5.000000e+04
42.1149       	-5.000000e+04
42.1712       	-5.000000e+04
42.2381       	-5.000000e+04
42.3074       	-5.000000e+04
42.3549       	-5.000000e+04
42.4099       	-5.000000e+04
42.4754       	-5.000000e+04
42.5397       	-5.000000e+04
42.6114       	-5.000000e+04
42.6926       	-5.000000e+04
42.7372       	-5.000000e+04
42.7894       	-5.000000e+04
42.8521       	-5.000000e+04
42.9215       	-5.000000e+04
42.9945       	-5.000000e+04
43.0445       	-5.000000e+04
43.1025       	-5.000000e+04
43.1715       	-5.000000e+04
43.2176       	-5.000000e+04
43.271        	-5.000000e+04
43.3351       	-5.000000e+04
43.3935       	-5.000000e+04
43.4559       	-5.000000e+04
43.5302       	-5.000000e+04
43.5808       	-5.000000e+04
43.6402       	-5.000000e+04
43.7109       	-5.000000e+04
43.7691       	-5.000000e+04
43.8308       	-5.000000e+04
43.9034       	-5.000000e+04
43.9583       	-5.000000e+04
44.0206       	-5.000000e+04
44.0926       	-5.000000e+04
44.1494       	-5.000000e+04
44.2123       	-5.000000e+04
44.2875       	-5.000000e+04
44.3496       	-5.000000e+04
44.4185       	-5.000000e+04
44.4971       	-5.000000e+04
44.549        	-5.000000e+04
44.6103       	-5.000000e+04
44.6831       	-5.000000e+04
44.7504       	-5.000000e+04
44.8276       	-5.000000e+04
44.8892       	-5.000000e+04
44.9531       	-5.000000e+04
45.0242       	-5.000000e+04
45.0896       	-5.000000e+04
45.1461       	-5.000000e+04
45.2126       	-5.000000e+04
45.2791       	-5.000000e+04
45.3475       	-5.000000e+04
45.4238       	-5.000000e+04
45.4942       	-5.000000e+04
45.5732       	-5.000000e+04
45.6617       	-5.000000e+04
45.7329       	-5.000000e+04
45.8149       	-5.000000e+04
45.87         	-5.000000e+04
45.9316       	-5.000000e+04
46.0043       	-5.000000e+04
46.0667       	-5.000000e+04
46.1254       	-5.000000e+04
46.1808       	-5.000000e+04
46.2424       	-5.000000e+04
46.2993       	-5.000000e+04
46.3631       	-5.000000e+04
46.4281       	-5.000000e+04
46.4995       	-5.000000e+04
46.579        	-5.000000e+04
46.6691       	-5.000000e+04
46.7385       	-5.000000e+04
46.8161       	-5.000000e+04
46.8919       	-5.000000e+04
46.9484       	-5.000000e+04
47.0148       	-5.000000e+04
47.0913       	-5.000000e+04
47.164        	-5.000000e+04
47.2475       	-5.000000e+04
47.3163       	-5.000000e+04
47.3817       	-5.000000e+04
47.4506       	-5.000000e+04
47.5303       	-5.000000e+04
47.6009       	-5.000000e+04
47.6808       	-5.000000e+04
47.77         	-5.000000e+04
47.8231       	-5.000000e+04
47.8836       	-5.000000e+04
47.9541       	-5.000000e+04
48.0328       	-5.000000e+04
48.0875       	-5.000000e+04
48.1512       	-5.000000e+04
48.2252       	-5.000000e+04
48.3023       	-5.000000e+04
48.3702       	-5.000000e+04
48.4478       	-5.000000e+04
48.5125       	-5.000000e+04
48.5834       	-5.000000e+04
48.6621       	-5.000000e+04
48.7325       	-5.000000e+04
48.8117       	-5.000000e+04
48.8966       	-5.000000e+04
48.9655       	-5.000000e+04
49.0394       	-5.000000e+04
49.1035       	-5.000000e+04
49.1724       	-5.000000e+04
49.2477       	-5.000000e+04
49.3104       	-5.000000e+04
49.3793       	-5.000000e+04
49.4569       	-5.000000e+04
49.5022       	-5.000000e+04
49.5519       	-5.000000e+04
49.608        	-5.000000e+04
49.664        	-5.000000e+04
49.72         	-5.000000e+04
49.776        	-5.000000e+04
49.832        	-5.000000e+04
49.888        	-5.000000e+04
49.944        	-5.000000e+04
50            	-5.000000e+04
50.0645       	-5.000000e+04
50.1365       	-5.000000e+04
50.2187       	-5.000000e+04
50.311        	-5.000000e+04
50.4079       	-5.000000e+04
50.511        	-5.000000e+04
50.6069       	-5.000000e+04
50.6759       	-5.000000e+04
50.7543       	-5.000000e+04
50.8423       	-5.000000e+04
50.9339       	-5.000000e+04
51.0134       	-5.000000e+04
51.1015       	-5.000000e+04
51.1972       	-5.000000e+04
51.2929       	-5.000000e+04
51.3876       	-5.000000e+04
51.4673       	-5.000000e+04
51.5571       	-5.000000e+04
51.6332       	-5.000000e+04
51.7177       	-5.000000e+04
51.8118       	-5.000000e+04
51.8818       	-5.000000e+04
51.9606       	-5.000000e+04
52.035        	-5.000000e+04
52.1124       	-5.000000e+04
52.1776       	-5.000000e+04
52.2528       	-5.000000e+04
52.3133       	-5.000000e+04
52.3819       	-5.000000e+04
52.447        	-5.000000e+04
52.519        	-5.000000e+04
52.5864       	-5.000000e+04
52.6508       	-5.000000e+04
52.7229       	-5.000000e+04
52.8029       	-5.000000e+04
52.8794       	-5.000000e+04
52.9552       	-5.000000e+04
53.039        	-5.000000e+04
53.0975       	-5.000000e+04
53.1646       	-5.000000e+04
53.2389       	-5.000000e+04
53.3078       	-5.000000e+04
53.3857       	-5.000000e+04
53.4716       	-5.000000e+04
53.5522       	-5.000000e+04
53.6417       	-5.000000e+04
53.7411       	-5.000000e+04
53.8389       	-5.000000e+04
53.9382       	-5.000000e+04
54.0376       	-5.000000e+04
54.137        	-5.000000e+04
54.2207       	-5.000000e+04
54.3139       	-5.000000e+04
54.4137       	-5.000000e+04
54.5135       	-5.000000e+04
54.6132       	-5.000000e+04
54.6924       	-5.000000e+04
54.7809       	-5.000000e+04
54.8794       	-5.000000e+04
54.9316       	-5.000000e+04
54.9934       	-5.000000e+04
55.0649       	-5.000000e+04
55.1445       	-5.000000e+04
55.2129       	-5.000000e+04
55.2901       	-5.000000e+04
55.3758       	-5.000000e+04
55.4374       	-5.000000e+04
55.5076       	-5.000000e+04
55.5864       	-5.000000e+04
55.6653       	-5.000000e+04
55.7537       	-5.000000e+04
55.8502       	-5.000000e+04
55.949        	-5.000000e+04
56.0478       	-5.000000e+04
56.1466       	-5.000000e+04
56.2454       	-5.000000e+04
56.3442       	-5.000000e+04
56.443        	-5.000000e+04
56.5419       	-5.000000e+04
56.6407       	-5.000000e+04
56.7395       	-5.000000e+04
56.8383       	-5.000000e+04
56.9371       	-5.000000e+04
57.0359       	-5.000000e+04
57.1347       	-5.000000e+04
57.2335       	-5.000000e+04
57.3149       	-5.000000e+04
57.4044       	-5.000000e+04
57.5005       	-5.000000e+04
57.5966       	-5.000000e+04
57.6525       	-5.000000e+04
57.7177       	-5.000000e+04
57.7913       	-5.000000e+04
57.865        	-5.000000e+04
57.9471       	-5.000000e+04
58.0363       	-5.000000e+04
58.1299       	-5.000000e+04
58.2234       	-5.000000e+04
58.3169       	-5.000000e+04
58.373        	-5.000000e+04
58.4381       	-5.000000e+04
58.5124       	-5.000000e+04
58.5833       	-5.000000e+04
58.662        	-5.000000e+04
58.7456       	-5.000000e+04
58.8053       	-5.000000e+04
58.8717       	-5.000000e+04
58.9469       	-5.000000e+04
59.0171       	-5.000000e+04
59.0927       	-5.000000e+04
59.1752       	-5.000000e+04
59.2439       	-5.000000e+04
59.3196       	-5.000000e+04
59.4046       	-5.000000e+04
59.4708       	-5.000000e+04
59.5464       	-5.000000e+04
59.622        	-5.000000e+04
59.685        	-5.000000e+04
59.748        	-5.000000e+04
59.811        	-5.000000e+04
59.874        	-5.000000e+04
59.937        	-5.000000e+04
60            	-5.000000e+04
60.0654       	-5.000000e+04
60.1401       	-5.000000e+04
60.2243       	-5.000000e+04
60.2769       	-5.000000e+04
60.3388       	-5.000000e+04
60.4104       	-5.000000e+04
60.4814       	-5.000000e+04
60.5621       	-5.000000e+04
60.652        	-5.000000e+04
60.7369       	-5.000000e+04
60.8315       	-5.000000e+04
60.9301       	-5.000000e+04
61.0286       	-5.000000e+04
61.1272       	-5.000000e+04
61.1893       	-5.000000e+04
61.2609       	-5.000000e+04
61.3418       	-5.000000e+04
61.4116       	-5.000000e+04
61.4912       	-5.000000e+04
61.5798       	-5.000000e+04
61.6506       	-5.000000e+04
61.7308       	-5.000000e+04
61.8207       	-5.000000e+04
61.8951       	-5.000000e+04
61.9786       	-5.000000e+04
62.0719       	-5.000000e+04
62.1302       	-5.000000e+04
62.1981       	-5.000000e+04
62.2753       	-5.000000e+04
62.3397       	-5.000000e+04
62.4133       	-5.000000e+04
62.4967       	-5.000000e+04
62.5631       	-5.000000e+04
62.639        	-5.000000e+04
62.7246       	-5.000000e+04
62.7926       	-5.000000e+04
62.8701       	-5.000000e+04
62.957        	-5.000000e+04
63.0268       	-5.000000e+04
63.106        	-5.000000e+04
63.1944       	-5.000000e+04
63.266        	-5.000000e+04
63.3472       	-5.000000e+04
63.4371       	-5.000000e+04
63.535        	-5.000000e+04
63.6315       	-5.000000e+04
63.6946       	-5.000000e+04
63.767        	-5.000000e+04
63.849        	-5.000000e+04
63.9289       	-5.000000e+04
64.0182       	-5.000000e+04
64.1147       	-5.000000e+04
64.2112       	-5.000000e+04
64.2844       	-5.000000e+04
64.3673       	-5.000000e+04
64.4596       	-5.000000e+04
64.5568       	-5.000000e+04
64.654        	-5.000000e+04
64.7495       	-5.000000e+04
64.8467       	-5.000000e+04
64.926        	-5.000000e+04
65.0135       	-5.000000e+04
65.1094       	-5.000000e+04
65.2053       	-5.000000e+04
65.2768       	-5.000000e+04
65.3569       	-5.000000e+04
65.4429       	-5.000000e+04
65.5359       	-5.000000e+04
65.6103       	-5.000000e+04
65.6931       	-5.000000e+04
65.7847       	-5.000000e+04
65.8784       	-5.000000e+04
65.9721       	-5.000000e+04
66.0658       	-5.000000e+04
66.1594       	-5.000000e+04
66.2531       	-5.000000e+04
66.3468       	-5.000000e+04
66.4404       	-5.000000e+04
66.5341       	-5.000000e+04
66.6278       	-5.000000e+04
66.7215       	-5.000000e+04
66.8151       	-5.000000e+04
66.9088       	-5.000000e+04
67.0025       	-5.000000e+04
67.0906       	-5.000000e+04
67.1845       	-5.000000e+04
67.2783       	-5.000000e+04
67.3722       	-5.000000e+04
67.4495       	-5.000000e+04
67.5345       	-5.000000e+04
67.6226       	-5.000000e+04
67.714        	-5.000000e+04
67.8019       	-5.000000e+04
67.8898       	-5.000000e+04
67.9816       	-5.000000e+04
68.0733       	-5.000000e+04
68.1651       	-5.000000e+04
68.2568       	-5.000000e+04
68.3486       	-5.000000e+04
68.4403       	-5.000000e+04
68.5321       	-5.000000e+04
68.6238       	-5.000000e+04
68.7156       	-5.000000e+04
68.8073       	-5.000000e+04
68.8925       	-5.000000e+04
68.9848       	-5.000000e+04
69.0629       	-5.000000e+04
69.1481       	-5.000000e+04
69.2333       	-5.000000e+04
69.3185       	-5.000000e+04
69.4036       	-5.000000e+04
69.4888       	-5.000000e+04
69.574        	-5.000000e+04
69.6592       	-5.000000e+04
69.7444       	-5.000000e+04
69.8296       	-5.000000e+04